<?xml version="1.0"?>
<VTKFile type="ImageData" version="0.1" byte_order="LittleEndian">
<ImageData WholeExtent="0 100 0 100 0 100" Origin="0 0 0" Spacing="1 1 1">
<Piece Extent="0 100 0 100 0 100">
<PointData>
</PointData>
<CellData Scalars="Spin">
<DataArray type="Int32" Name="Spin" format="ascii" RangeMin="0" RangeMax="10000">
921 921 921 273 273 273 273 273 273 273 273 273 273 273 782 782 782 782 782 782 404 404 404 404 404 404 404 404 404 404 404 404 404 112 638 638 638 638 638 638 388 388 388 388 388 388 388 388 388 388 921 921 921 273 273 273 273 273 273 273 273 273 273 273 782 782 782 782 782 782 782 404 404 404 404 404 404 404 404 404 404 404 404 404 112 638 638 638 638 638 388 388 388 388 388 388 388 388 388 388 273 273 273 273 273 273 273 273 273 273 273 273 273 273 782 782 782 782 782 782 404 404 404 404 404 404 404 404 404 404 404 404 404 638 638 638 638 638 638 638 388 388 388 388 388 388 388 388 388 388 273 273 273 273 273 273 273 273 273 273 273 273 273 273 782 782 782 782 782 404 404 404 404 404 404 404 404 404 404 404 404 404 404 638 638 638 638 638 638 638 388 388 388 388 388 388 388 388 388 388 273 273 273 273 273 273 273 273 273 273 273 273 273 273 782 782 782 782 404 404 404 404 404 404 404 404 404 404 404 404 404 404 404 638 638 638 638 638 638 638 388 388 388 388 388 388 388 388 388 388 273 273 273 273 273 273 273 273 273 273 273 273 259 259 782 782 782 404 404 404 404 404 404 404 404 404 404 404 404 404 404 638 500 638 638 638 638 638 638 638 638 388 388 388 388 388 388 388 388 388 273 273 273 273 273 273 273 273 273 273 273 259 259 259 259 404 404 404 404 404 404 404 404 404 404 404 404 404 404 404 404 638 638 638 638 638 638 638 638 638 638 388 388 388 388 388 388 388 388 362 273 273 273 273 273 273 273 273 273 273 259 259 259 259 259 404 404 404 404 404 404 404 404 404 404 404 404 404 404 404 404 638 638 638 638 638 638 638 638 638 638 388 388 388 388 388 388 388 388 362 273 273 273 273 273 273 273 273 273 273 259 259 259 259 259 404 404 404 404 404 404 404 404 404 404 404 404 404 404 404 404 638 638 638 638 638 638 638 638 638 638 388 388 388 388 388 388 388 362 362 273 273 273 273 273 273 273 273 273 259 259 259 259 259 259 404 404 404 404 404 404 404 404 404 404 404 404 404 404 404 404 638 638 638 638 638 638 638 638 638 638 546 546 546 546 546 546 546 362 362 273 273 273 273 273 273 273 273 273 259 259 259 259 259 259 404 404 404 404 404 404 404 404 404 404 404 404 404 404 404 404 404 638 638 638 638 638 638 638 638 638 546 546 546 546 546 546 546 546 362 273 273 273 273 273 273 273 273 273 259 259 259 259 259 259 404 404 404 404 404 404 404 404 404 404 404 404 404 404 404 404 127 638 638 638 638 638 638 638 638 546 546 546 546 546 546 546 546 546 362 273 273 273 273 273 273 273 273 259 259 259 259 259 259 259 404 404 404 404 404 404 404 404 404 404 404 404 404 404 404 127 127 127 638 638 638 638 638 638 638 546 546 546 546 546 546 546 546 546 362 273 273 273 273 273 273 273 273 259 259 259 259 259 259 259 404 404 404 404 404 404 404 404 404 404 404 404 404 404 127 127 127 127 127 638 638 638 638 638 638 546 546 546 546 546 546 546 546 546 362 273 273 273 273 273 273 273 273 259 259 259 259 259 259 259 404 404 404 404 404 404 404 404 404 404 404 404 404 404 127 127 127 127 127 127 638 638 638 638 546 546 546 546 546 546 546 546 546 546 362 273 273 273 273 273 273 273 259 259 259 259 259 259 259 259 404 404 404 404 404 404 404 404 404 404 404 404 404 404 127 127 127 127 127 127 402 402 402 402 546 546 546 546 546 546 546 546 546 546 362 273 273 273 273 273 273 259 259 259 259 259 259 259 259 259 404 404 404 404 404 404 404 404 404 404 404 404 404 404 127 127 127 127 127 127 402 402 402 402 546 546 546 546 546 546 546 546 546 546 362 273 273 273 273 273 273 259 259 259 259 259 259 259 259 259 259 404 404 404 404 404 404 404 404 404 404 404 404 404 127 127 127 127 127 402 402 402 402 402 402 546 546 546 546 546 546 546 546 14 14 273 273 273 273 273 273 259 259 259 259 259 259 259 259 259 259 404 404 404 404 404 404 404 404 404 404 404 404 127 404 127 127 127 127 402 402 402 402 402 493 493 546 546 546 546 546 546 14 14 14 273 273 273 273 273 273 259 259 259 259 259 259 259 259 259 663 663 663 404 404 404 404 404 404 404 404 404 404 404 762 127 884 490 490 490 402 402 402 493 493 493 493 546 546 546 546 14 14 14 14 453 453 453 273 706 706 706 259 259 259 259 259 259 259 663 663 663 663 663 404 404 404 404 404 404 404 762 762 762 762 762 490 490 490 490 490 402 493 493 493 493 493 493 493 493 14 14 14 14 14 453 453 453 706 706 706 706 706 259 259 259 259 259 663 663 663 663 663 663 663 404 137 137 137 137 137 762 762 762 762 762 490 490 490 490 490 490 493 493 493 493 493 493 493 493 14 14 14 14 309 453 453 706 706 706 706 706 706 706 706 259 259 259 663 663 663 663 663 663 663 137 137 137 137 137 137 762 762 762 762 762 490 490 490 490 490 490 490 493 493 493 493 493 493 493 247 247 247 247 309 140 706 706 706 706 706 706 706 706 706 706 360 360 360 663 663 663 663 663 137 137 137 137 137 137 137 762 762 762 762 762 490 490 490 490 490 490 490 493 493 493 493 493 493 247 247 247 247 247 309 140 140 706 706 706 706 706 706 706 706 706 360 360 360 360 252 252 252 252 48 137 137 137 137 137 137 762 762 762 762 762 490 490 490 490 490 490 490 13 493 493 280 280 247 247 247 247 247 247 309 140 140 15 706 706 706 706 706 706 511 213 213 360 360 360 252 252 252 48 48 48 137 137 137 137 137 762 482 762 762 762 490 490 490 490 490 490 13 13 13 280 280 773 247 247 247 247 247 247 309 705 342 857 340 729 531 693 878 99 911 511 951 111 656 996 366 100 873 209 551 30 540 790 673 168 799 649 133 306 955 616 425 597 373 81 875 321 266 948 298 536 233 262 177 863 80 736 245 429 349 178 950 217 280 491 811 751 484 488 777 998 956 150 567 33 610 433 421 659 931 106 772 901 761 115 585 754 783 754 241 342 486 55 412 519 488 647 844 420 608 252 719 54 100 65 558 585 3 599 177 497 376 457 678 292 831 576 312 929 444 908 693 837 33 97 838 741 963 455 819 185 738 339 184 155 239 960 629 589 638 376 124 640 959 439 818 844 117 677 968 605 865 366 427 46 339 567 524 520 840 181 945 852 122 697 767 902 43 645 689 565 59 886 642 499 532 453 791 723 903 6 718 177 284 254 347 63 329 883 834 197 11 60 120 4 488 66 329 467 910 64 739 972 751 925 484 920 704 952 234 473 106 818 320 393 510 769 626 225 857 57 370 262 350 1000 499 828 795 477 599 830 458 836 385 976 50 456 220 881 679 547 252 637 803 918 410 990 759 971 446 686 200 205 413 84 76 510 293 295 601 340 890 79 49 993 133 342 384 619 723 944 512 117 509 544 165 936 324 80 968 919 194 829 386 708 164 830 995 440 675 18 451 776 461 253 8 461 694 581 416 473 99 30 759 784 868 474 493 413 352 450 715 187 859 378 226 332 348 515 765 659 145 219 757 859 943 589 500 69 950 296 155 819 806 894 225 166 749 378 654 954 227 186 287 354 918 619 914 296 678 392 987 370 437 270 978 268 774 525 949 955 714 336 445 565 866 784 22 481 724 626 508 78 67 160 782 601 598 193 277 379 881 537 904 559 74 309 623 765 242 522 950 1000 856 724 802 573 281 222 545 324 853 73 142 206 55 509 924 745 661 467 598 361 936 173 686 778 626 675 202 348 235 69 53 708 434 705 644 805 718 847 254 737 330 682 583 327 924 52 524 279 413 234 617 294 618 11 660 481 647 142 251 877 333 472 160 936 961 859 719 400 70 173 857 972 746 800 176 517 948 866 869 248 899 28 898 375 924 921 282 223 475 186 180 277 80 16 553 649 65 778 221 579 466 962 946 888 303 60 7 381 609 955 426 463 191 569 744 79 142 207 545 846 479 126 77 462 824 325 197 917 677 318 544 998 447 812 542 498 216 113 146 408 91 267 935 807 510 729 904 93 672 156 893 828 29 991 978 829 25 819 97 711 948 529 32 550 250 447 47 323 184 864 497 525 372 769 317 65 375 594 722 41 289 600 3 120 346 550 709 705 270 649 527 113 24 370 941 308 26 401 351 204 809 419 3 440 234 404 783 996 885 473 660 716 13 368 59 339 803 60 329 856 544 490 675 30 921 434 589 325 838 246 515 261 356 739 439 450 982 637 742 716 1000 764 984 431 756 649 833 663 175 167 513 413 807 857 866 12 743 439 401 286 157 20 381 993 393 913 254 625 662 469 500 712 204 544 412 776 784 158 11 578 567 503 811 833 89 601 367 429 29 601 373 797 621 615 242 570 703 827 801 677 520 818 232 100 474 896 19 659 489 950 802 726 651 256 580 575 959 855 634 54 971 957 919 427 931 318 148 666 267 235 329 835 248 604 61 744 491 501 725 690 246 610 263 566 101 339 674 641 257 854 421 33 101 290 496 780 653 761 474 550 312 210 720 601 575 898 560 79 455 224 695 209 856 294 561 673 657 980 238 758 872 127 373 292 71 655 435 679 762 68 366 676 57 743 44 414 633 799 780 149 142 103 482 471 806 844 707 606 500 691 732 229 247 700 616 341 889 234 937 167 70 395 96 235 114 501 224 282 602 180 377 513 249 157 285 326 721 583 70 651 817 744 841 633 262 155 785 63 86 652 501 434 940 849 477 645 348 350 996 714 896 368 393 658 878 209 665 118 962 514 894 817 391 16 634 469 97 630 514 38 171 45 802 754 617 771 933 33 401 816 241 172 526 848 322 653 774 110 915 564 543 210 995 435 266 531 836 262 197 310 252 842 55 811 395 163 770 890 417 911 683 381 486 278 233 595 712 469 965 964 862 473 440 801 797 482 508 875 327 943 980 754 598 60 726 948 782 66 578 681 141 582 555 704 815 206 529 537 51 62 395 106 871 189 224 520 525 316 383 255 840 582 690 349 327 644 241 610 196 434 684 758 79 91 872 690 64 108 598 353 924 794 220 245 211 369 682 465 772 25 604 201 985 714 365 552 613 144 353 756 656 978 321 161 976 77 290 126 433 482 655 144 499 214 131 472 92 979 331 450 354 329 677 712 890 85 835 739 150 205 502 162 753 282 948 554 853 22 815 54 1 609 457 294 853 497 55 648 566 147 696 11 919 626 400 835 908 203 529 15 506 802 471 773 580 706 772 84 956 982 736 298 365 627 813 813 642 525 828 922 463 82 828 75 317 752 176 955 460 963 414 761 538 291 31 600 944 285 388 267 469 434 633 360 652 104 476 945 662 288 473 279 588 106 89 586 293 269 809 833 883 609 884 199 388 170 943 521 148 968 814 230 926 825 500 826 377 945 35 515 358 36 890 119 197 886 388 229 690 365 924 48 802 896 533 835 102 949 453 478 101 484 518 370 170 658 572 189 924 301 169 896 224 313 967 996 178 701 542 67 608 407 915 474 174 305 105 939 425 988 681 146 576 871 158 51 821 537 140 656 318 246 79 250 634 849 931 921 921 921 921 273 273 273 273 273 273 273 273 273 273 782 782 782 782 782 782 404 404 404 404 404 404 404 404 404 404 404 404 404 404 638 638 638 638 638 638 388 388 388 388 388 388 388 388 388 388 921 921 273 921 273 273 273 273 273 273 273 273 273 273 782 782 782 782 782 782 404 404 404 404 404 404 404 404 404 404 404 404 404 638 638 638 638 638 638 638 388 388 388 388 388 388 388 388 388 388 273 273 273 273 273 273 273 273 273 273 273 273 273 273 782 782 782 782 782 782 404 404 404 404 404 404 404 404 404 404 404 404 404 404 638 638 638 638 638 638 388 388 388 388 388 388 388 388 388 388 273 273 273 273 273 273 273 273 273 273 273 273 273 273 782 782 782 782 782 404 404 404 404 404 404 404 404 404 404 404 404 404 404 638 638 638 638 638 638 638 388 388 388 388 388 388 388 388 388 388 273 273 273 273 273 273 273 273 273 273 273 273 273 273 782 782 782 782 404 404 404 404 404 404 404 404 404 404 404 404 404 404 638 638 638 638 638 638 638 638 388 388 388 388 388 388 388 388 388 388 273 273 273 273 273 273 273 273 273 273 273 273 259 259 782 782 782 404 404 404 404 404 404 404 404 404 404 404 404 404 404 404 500 638 638 638 638 638 638 638 638 388 388 388 388 388 388 388 388 388 273 273 273 273 273 273 273 273 273 273 273 259 259 259 259 404 404 404 404 404 404 404 404 404 404 404 404 404 404 404 404 500 638 638 638 638 638 638 638 638 638 388 388 388 388 388 388 388 388 362 273 273 273 273 273 273 273 273 273 273 273 259 259 259 259 404 404 404 404 404 404 404 404 404 404 404 404 404 404 404 404 638 638 638 638 638 638 638 638 638 638 388 388 388 388 388 388 388 388 362 273 273 273 273 273 273 273 273 273 273 259 259 259 259 259 404 404 404 404 404 404 404 404 404 404 404 404 404 404 404 404 638 638 638 638 638 638 638 638 638 638 388 388 388 388 388 388 388 362 362 273 273 273 273 273 273 273 273 273 259 259 259 259 259 259 404 404 404 404 404 404 404 404 404 404 404 404 404 404 404 404 638 638 638 638 638 638 638 638 638 638 546 546 546 546 546 546 546 362 362 273 273 273 273 273 273 273 273 273 259 259 259 259 259 259 404 404 404 404 404 404 404 404 404 404 404 404 404 404 404 404 404 638 638 638 638 638 638 638 638 638 546 546 546 546 546 546 546 546 362 273 273 273 273 273 273 273 273 273 259 259 259 259 259 259 404 404 404 404 404 404 404 404 404 404 404 404 404 404 404 404 127 638 638 638 638 638 638 638 638 546 546 546 546 546 546 546 546 546 362 273 273 273 273 273 273 273 273 259 259 259 259 259 259 259 404 404 404 404 404 404 404 404 404 404 404 404 404 404 404 127 127 127 638 638 638 638 638 638 638 546 546 546 546 546 546 546 546 546 362 273 273 273 273 273 273 273 273 259 259 259 259 259 259 259 404 404 404 404 404 404 404 404 404 404 404 404 404 404 127 127 127 127 127 638 638 638 638 638 638 546 546 546 546 546 546 546 546 546 362 273 273 273 273 273 273 273 273 259 259 259 259 259 259 259 404 404 404 404 404 404 404 404 404 404 404 404 404 404 127 127 127 127 127 127 638 638 638 638 546 546 546 546 546 546 546 546 546 546 362 273 273 273 273 273 273 273 259 259 259 259 259 259 259 259 404 404 404 404 404 404 404 404 404 404 404 404 404 404 127 127 127 127 127 127 127 402 402 402 546 546 546 546 546 546 546 546 546 546 362 273 273 273 273 273 273 273 259 259 259 259 259 259 259 259 404 404 404 404 404 404 404 404 404 404 404 404 404 404 127 127 127 127 127 127 402 402 402 402 546 546 546 546 546 546 546 546 546 546 362 273 273 273 273 273 273 259 259 259 259 259 259 259 259 259 259 404 404 404 404 404 404 404 404 404 404 404 404 404 127 127 127 127 127 127 402 402 402 402 402 546 546 546 546 546 546 546 546 14 14 273 273 273 273 273 273 259 259 259 259 259 259 259 259 259 259 404 404 404 404 404 404 404 404 404 404 404 404 404 127 127 127 127 127 402 402 402 402 402 493 493 546 546 546 546 546 546 14 14 14 273 273 273 273 273 259 259 259 259 259 259 259 259 259 259 663 663 663 404 404 404 404 404 404 404 404 404 404 762 762 884 127 127 490 402 402 402 402 493 493 493 493 546 546 546 546 14 14 14 14 453 453 453 273 706 273 259 259 259 259 259 259 259 259 663 663 663 663 663 404 404 404 404 404 404 404 762 762 762 762 762 127 490 490 490 490 402 493 493 493 493 493 493 493 493 14 14 14 14 14 453 453 453 706 706 706 706 706 259 259 259 259 259 663 663 663 663 663 663 663 404 137 137 137 137 137 762 762 762 762 762 490 490 490 490 490 490 493 493 493 493 493 493 493 493 14 14 14 14 309 453 453 706 706 706 706 706 706 706 259 259 259 259 663 663 663 663 663 663 663 137 137 137 137 137 137 762 762 762 762 762 490 490 490 490 490 490 490 493 493 493 493 493 493 493 247 247 247 247 309 453 706 706 706 706 706 706 706 706 706 866 866 360 360 663 663 663 663 663 137 137 137 137 137 137 137 762 762 762 762 762 490 490 490 490 490 490 490 493 493 493 493 493 493 247 247 247 247 247 309 140 140 706 706 706 706 706 706 706 706 866 866 360 360 360 252 252 252 252 137 137 137 137 137 137 137 762 762 762 762 762 490 490 490 490 490 490 490 13 493 280 280 280 280 247 247 247 247 247 309 140 140 15 706 706 706 706 706 706 706 213 213 213 360 360 252 252 252 252 48 137 48 137 137 137 137 482 482 482 730 92 490 490 490 490 490 13 13 13 13 280 280 280 280 80 247 247 247 247 309 776 410 66 165 41 920 891 351 679 243 673 384 3 528 237 909 810 723 886 864 61 517 633 722 525 129 672 435 32 798 619 439 822 407 282 328 928 855 546 899 397 987 773 879 598 863 300 550 914 979 358 833 621 337 558 283 735 244 599 156 582 87 174 512 300 454 46 659 400 232 763 334 788 43 734 212 503 795 634 881 368 996 518 782 157 318 493 799 304 863 447 804 598 530 12 530 194 219 29 352 826 268 672 432 123 805 979 748 726 776 156 67 238 586 7 469 645 361 37 151 204 621 512 712 327 808 635 23 454 782 794 433 913 644 833 734 711 4 497 505 843 753 118 565 86 314 189 299 345 426 977 24 402 272 311 421 561 211 970 502 943 291 376 80 829 844 119 930 911 364 738 967 896 822 96 506 49 803 473 228 737 455 262 298 881 153 700 256 758 923 805 678 789 220 341 330 105 23 261 440 846 535 248 21 631 37 816 293 924 476 70 375 99 152 545 164 278 729 386 892 149 759 918 205 69 551 674 302 325 380 161 251 486 829 224 582 619 83 118 723 350 148 482 771 922 752 780 90 550 107 565 342 828 807 920 183 137 315 613 775 721 528 434 391 232 294 318 393 853 690 415 154 277 744 173 62 524 271 620 80 926 260 116 312 31 739 593 363 727 768 733 238 404 354 549 80 544 122 347 535 115 586 76 778 155 625 497 873 24 922 943 564 321 450 926 755 504 58 109 33 325 575 64 232 803 179 867 80 705 252 193 837 928 787 579 171 1000 772 37 963 62 330 333 893 595 599 915 852 925 715 260 384 437 667 203 395 110 380 259 124 451 594 331 782 135 266 296 540 56 891 475 754 836 219 879 199 11 954 894 553 912 626 402 304 757 203 582 540 828 534 135 490 50 815 259 440 641 222 784 943 246 980 363 114 125 633 517 233 219 957 166 872 328 371 696 337 48 501 412 647 946 706 75 615 941 796 844 250 435 445 79 966 260 247 136 136 24 750 124 834 117 646 507 540 473 1 868 936 693 326 735 950 983 747 440 708 859 264 683 400 517 870 479 921 109 479 272 389 461 457 70 674 897 812 571 993 619 972 281 332 868 957 931 287 672 439 633 285 727 534 203 525 953 984 437 388 363 5 274 895 427 764 345 767 135 813 742 982 336 103 186 24 440 330 462 989 729 879 563 460 849 12 39 964 836 208 111 13 20 319 21 591 210 950 579 305 908 472 723 819 744 741 114 256 508 144 125 895 540 126 864 121 791 672 543 954 80 315 805 142 171 175 947 918 582 81 13 49 882 866 851 180 919 234 35 185 346 578 927 754 682 774 231 578 742 670 525 227 206 719 93 194 690 853 225 42 277 908 492 184 840 860 283 184 138 545 52 45 256 937 323 763 543 850 688 536 813 410 411 987 860 614 203 239 673 576 195 835 903 386 279 402 620 939 277 859 108 890 938 107 873 84 221 361 934 3 436 652 740 238 428 882 335 388 718 288 262 822 944 559 762 855 608 672 116 192 246 819 964 81 601 291 187 88 151 637 378 476 252 183 662 803 290 985 449 858 732 752 958 548 346 118 679 949 225 290 77 437 20 65 46 953 293 232 843 712 573 914 534 971 878 649 274 401 668 670 708 99 523 269 626 109 892 461 674 884 524 898 402 563 935 329 839 134 847 334 740 906 231 800 660 601 623 621 533 650 658 263 781 418 151 920 736 694 515 294 834 985 14 283 430 79 197 657 182 230 810 503 399 52 626 514 90 358 447 382 437 387 975 887 183 316 445 944 578 583 421 446 285 746 345 466 25 612 113 427 84 675 749 871 452 471 997 249 4 582 524 777 652 303 442 739 907 152 294 221 434 825 500 915 101 692 871 307 370 870 226 616 607 254 713 520 865 354 846 386 78 940 724 445 556 496 526 729 888 445 746 988 88 669 254 643 909 792 346 58 928 799 937 573 563 418 799 5 798 533 318 609 803 71 558 258 18 98 862 61 383 34 343 961 648 883 128 489 207 468 413 216 513 839 97 677 99 817 530 582 254 666 599 981 997 487 379 880 138 485 940 174 367 778 752 674 123 986 225 490 147 998 900 137 929 726 992 895 303 655 158 822 688 928 553 828 455 282 290 984 689 954 2 397 210 944 344 755 923 891 849 996 413 47 285 806 86 603 357 763 302 104 719 644 865 906 650 440 555 339 466 216 367 390 635 140 893 323 515 795 280 797 633 967 374 719 878 213 106 545 770 376 820 741 406 510 5 534 961 221 789 86 243 595 350 657 462 240 298 6 66 621 749 124 655 350 442 195 694 476 548 697 1 548 27 644 86 24 779 399 317 931 321 500 397 809 276 475 558 436 964 69 378 218 225 484 967 67 728 327 165 704 498 9 898 803 599 609 132 20 671 24 800 858 44 997 322 984 448 939 256 984 359 123 362 718 925 703 130 44 621 408 904 967 955 419 277 230 283 84 687 304 475 160 193 452 200 953 351 512 653 258 700 827 80 462 998 973 446 462 888 616 31 119 531 234 415 494 511 983 570 994 976 886 59 910 811 900 249 325 449 592 385 81 88 749 75 122 680 32 690 158 461 161 550 896 338 18 947 440 273 207 558 733 68 124 424 702 24 124 121 162 432 244 21 726 511 362 439 132 733 740 545 710 570 288 131 905 135 496 686 103 574 560 720 863 912 705 785 305 151 74 791 140 823 333 168 401 542 206 469 443 424 636 921 921 921 273 273 273 273 273 273 273 273 273 273 273 782 782 782 782 782 782 404 404 404 404 404 404 404 404 404 404 404 404 404 404 638 638 638 638 638 638 388 388 388 388 388 388 388 388 388 388 921 273 273 273 273 273 273 273 273 273 273 273 273 273 782 782 782 782 782 782 404 404 404 404 404 404 404 404 404 404 404 404 404 404 638 638 638 638 638 638 388 388 388 388 388 388 388 388 388 388 273 273 273 273 273 273 273 273 273 273 273 273 273 273 782 782 782 782 782 782 404 404 404 404 404 404 404 404 404 404 404 404 404 500 638 638 638 638 638 638 388 388 388 388 388 388 388 388 388 388 273 273 273 273 273 273 273 273 273 273 273 273 273 273 782 782 782 782 782 404 404 404 404 404 404 404 404 404 404 404 404 404 638 638 638 638 638 638 638 638 388 388 388 388 388 388 388 388 388 388 273 273 273 273 273 273 273 273 273 273 273 273 273 273 782 782 782 782 404 404 404 404 404 404 404 404 404 404 404 404 404 404 404 638 638 638 638 638 638 638 388 388 388 388 388 388 388 388 388 388 273 273 273 273 273 273 273 273 273 273 273 273 259 259 259 782 782 404 404 404 404 404 404 404 404 404 404 404 404 404 404 404 638 638 638 638 638 638 638 638 638 388 388 388 388 388 388 388 388 388 273 273 273 273 273 273 273 273 273 273 273 259 259 259 259 404 404 404 404 404 404 404 404 404 404 404 404 404 404 404 404 638 638 638 638 638 638 638 638 638 638 388 388 388 388 388 388 388 388 362 273 273 273 273 273 273 273 273 273 273 273 259 259 259 259 404 404 404 404 404 404 404 404 404 404 404 404 404 404 404 404 404 638 638 638 638 638 638 638 638 638 388 388 388 388 388 388 388 388 362 273 273 273 273 273 273 273 273 273 273 259 259 259 259 259 404 404 404 404 404 404 404 404 404 404 404 404 404 404 404 404 404 638 638 638 638 638 638 638 638 638 388 388 388 388 388 388 388 362 362 273 273 273 273 273 273 273 273 273 259 259 259 259 259 259 404 404 404 404 404 404 404 404 404 404 404 404 404 404 404 404 404 638 638 638 638 638 638 638 638 638 546 546 546 546 546 546 546 362 362 273 273 273 273 273 273 273 273 273 259 259 259 259 259 259 404 404 404 404 404 404 404 404 404 404 404 404 404 404 404 404 404 638 638 638 638 638 638 638 638 638 546 546 546 546 546 546 546 546 362 273 273 273 273 273 273 273 273 273 259 259 259 259 259 259 404 404 404 404 404 404 404 404 404 404 404 404 404 404 404 404 127 127 638 638 638 638 638 638 638 546 546 546 546 546 546 546 546 546 362 273 273 273 273 273 273 273 273 259 259 259 259 259 259 259 404 404 404 404 404 404 404 404 404 404 404 404 404 404 404 127 127 127 127 638 638 638 638 638 638 546 546 546 546 546 546 546 546 546 362 273 273 273 273 273 273 273 273 259 259 259 259 259 259 259 404 404 404 404 404 404 404 404 404 404 404 404 404 404 127 127 127 127 127 127 638 638 638 638 638 546 546 546 546 546 546 546 546 546 362 273 273 273 273 273 273 273 273 259 259 259 259 259 259 259 404 404 404 404 404 404 404 404 404 404 404 404 404 404 127 127 127 127 127 127 127 638 638 638 546 546 546 546 546 546 546 546 546 546 362 273 273 273 273 273 273 273 259 259 259 259 259 259 259 259 404 404 404 404 404 404 404 404 404 404 404 404 404 404 127 127 127 127 127 127 127 402 402 402 546 546 546 546 546 546 546 546 546 546 362 273 273 273 273 273 273 273 259 259 259 259 259 259 259 259 404 404 404 404 404 404 404 404 404 404 404 404 404 404 127 127 127 127 127 127 402 402 402 402 546 546 546 546 546 546 546 546 546 546 362 273 273 273 273 273 273 259 259 259 259 259 259 259 259 259 259 404 404 404 404 404 404 404 404 404 404 404 404 404 127 127 127 127 127 127 402 402 402 402 402 546 546 546 546 546 546 546 546 546 362 273 273 273 273 273 273 259 259 259 259 259 259 259 259 259 259 404 404 404 404 404 404 404 404 404 404 404 404 404 127 127 127 127 127 402 402 402 402 402 493 493 546 546 546 546 546 546 546 14 14 273 273 273 273 273 530 259 259 259 259 259 259 259 259 259 663 663 404 404 404 404 404 404 404 404 404 404 762 762 762 127 127 127 490 402 402 402 402 493 493 493 493 546 546 546 546 14 14 14 14 453 453 453 273 530 530 530 259 259 259 259 259 259 259 663 663 663 663 404 404 404 404 404 404 404 404 762 762 762 762 762 490 490 490 490 490 402 493 493 493 493 493 493 493 352 14 14 14 14 14 453 453 453 706 706 530 530 530 259 259 259 259 259 663 663 663 663 663 663 404 404 404 137 137 137 137 762 762 762 762 762 490 490 490 490 490 490 493 493 493 493 493 493 493 493 14 14 14 14 309 453 453 706 706 706 706 706 706 706 259 866 866 866 663 663 663 663 663 663 663 137 137 137 137 137 137 762 762 762 762 762 490 490 490 490 490 490 490 493 493 493 493 493 493 247 247 247 247 247 309 945 945 706 706 706 706 706 706 706 866 866 866 866 663 663 663 663 663 663 663 137 137 137 137 137 137 762 762 762 762 762 490 490 490 490 490 490 490 490 493 280 280 280 280 247 247 247 247 247 309 945 945 15 15 706 706 706 706 706 983 866 866 866 360 360 252 252 252 252 252 137 137 137 137 137 137 762 762 762 762 762 490 490 490 490 490 490 490 490 280 280 280 280 280 280 247 247 247 247 309 945 945 15 15 706 706 706 706 983 983 983 213 360 360 360 252 252 252 252 252 137 137 137 137 137 482 482 762 996 762 490 490 490 490 490 490 490 13 13 13 280 280 280 280 933 933 933 933 933 309 53 220 46 361 173 646 225 216 597 164 810 696 33 810 623 588 929 918 38 368 490 667 377 925 918 977 859 487 730 72 92 196 746 613 106 147 893 738 795 60 880 570 351 159 496 50 157 998 951 505 431 426 154 944 737 285 283 387 547 77 166 865 606 170 268 878 787 583 67 933 332 677 874 306 43 110 679 271 230 758 309 557 658 886 778 970 225 580 389 568 205 273 670 997 238 185 994 245 440 118 14 249 168 720 743 802 538 282 51 340 613 819 390 792 117 530 612 996 419 133 597 752 789 814 7 966 471 782 763 61 776 349 407 635 163 821 287 352 219 10 301 757 258 817 213 542 149 197 950 563 637 526 975 713 266 645 188 635 375 464 341 267 17 220 451 615 535 961 159 1000 238 936 422 426 623 278 416 473 500 973 439 426 741 842 920 178 183 253 379 623 505 581 641 61 959 639 83 538 793 749 543 889 714 805 738 500 913 59 860 551 431 44 530 846 185 993 99 283 970 378 963 11 702 531 63 83 888 732 33 39 495 381 869 642 481 551 382 153 917 328 850 428 990 731 88 421 615 625 259 961 896 357 61 635 863 816 939 571 200 11 315 970 963 161 93 60 34 159 577 828 361 488 650 206 810 299 53 778 531 343 917 538 983 704 534 635 476 235 730 514 622 679 972 344 374 537 893 525 631 49 72 734 51 338 760 176 931 1 299 628 529 219 761 65 248 352 281 301 199 239 881 898 605 201 841 286 775 659 202 59 372 505 344 230 224 338 689 259 60 931 878 208 670 392 35 854 841 503 833 80 503 953 239 260 37 725 830 701 757 346 536 979 346 858 9 869 969 462 714 45 951 362 965 626 935 796 614 513 57 137 682 610 821 749 811 868 275 910 353 456 142 820 28 363 572 995 179 423 719 448 919 213 542 235 174 344 672 460 664 845 833 975 18 774 678 94 578 474 693 214 164 728 571 778 40 208 524 68 417 980 136 761 327 371 355 606 263 23 855 645 172 986 721 883 690 509 689 743 257 508 549 326 145 839 817 90 443 432 533 71 429 1000 156 728 35 993 764 629 108 955 343 280 860 16 217 636 89 36 553 733 740 234 983 557 340 398 311 374 949 326 650 866 856 223 737 354 907 776 66 787 832 212 458 585 742 322 141 210 721 563 373 759 243 47 373 809 807 127 446 418 7 40 368 513 705 463 24 348 335 542 130 831 948 27 547 718 91 33 457 494 537 427 955 366 452 72 366 586 904 693 366 195 719 216 667 92 777 943 672 566 486 575 236 160 43 594 369 121 449 915 973 36 696 437 459 284 419 346 941 581 759 454 659 15 251 869 176 87 5 719 208 188 648 941 573 600 986 283 146 489 421 156 165 23 354 46 765 551 242 964 975 624 273 507 780 631 39 758 628 988 219 98 528 434 951 241 744 695 789 974 83 72 832 792 669 196 202 570 357 859 333 912 963 502 73 482 759 951 654 717 677 229 15 148 917 32 836 91 151 310 178 89 817 886 304 559 622 337 235 711 381 718 587 735 472 586 404 669 425 288 523 7 714 981 515 508 874 86 945 940 396 590 556 209 869 298 732 531 683 80 173 532 574 8 235 176 654 130 842 740 745 356 943 241 726 410 312 818 566 568 720 600 65 241 317 575 368 179 217 394 756 274 772 581 963 780 907 197 291 392 313 378 502 543 772 679 15 329 276 28 567 545 859 994 599 368 125 676 974 62 795 177 442 618 84 501 507 598 838 810 559 686 297 28 415 401 573 969 94 622 836 363 187 773 814 243 684 901 113 241 179 284 405 158 765 245 836 715 895 568 977 355 179 259 228 417 612 253 527 66 142 502 749 666 953 562 593 89 483 445 132 675 791 807 801 162 18 228 117 585 101 339 303 466 858 755 121 762 475 689 708 23 779 956 479 650 35 137 167 839 214 723 490 80 180 162 271 114 24 965 575 944 577 911 597 272 573 201 342 829 596 421 794 449 47 135 266 483 678 836 208 553 292 142 696 305 682 20 480 383 217 245 873 269 741 529 998 568 700 265 991 365 904 355 126 845 907 818 504 507 348 420 261 78 86 596 95 20 179 490 630 149 140 422 880 831 516 226 673 594 990 410 141 437 867 823 338 433 954 298 318 167 674 767 503 156 875 388 500 48 152 806 883 592 20 978 397 182 641 672 759 496 252 174 428 131 29 304 846 902 917 687 482 928 126 630 610 269 909 518 154 392 47 807 82 53 134 21 224 950 393 634 957 35 494 688 401 736 224 108 301 894 785 944 742 691 282 890 835 490 957 524 959 219 600 423 253 887 747 113 165 400 580 753 880 547 498 128 956 285 867 190 39 390 149 475 131 124 575 920 816 5 736 634 347 40 623 41 583 704 192 854 858 186 151 755 11 36 409 10 994 271 415 119 56 43 682 215 50 628 765 799 437 965 229 205 687 339 259 799 86 992 840 731 535 420 850 252 68 735 378 592 39 12 154 870 271 90 93 951 278 740 341 624 620 917 207 805 335 96 906 632 963 906 479 150 508 292 237 611 282 218 942 260 792 835 905 54 243 862 67 445 643 887 977 636 975 298 640 565 798 134 546 942 797 96 375 793 906 5 962 157 42 688 738 694 429 768 817 986 896 601 755 205 424 345 351 611 213 450 329 501 293 352 251 664 181 234 983 671 88 884 595 791 454 243 11 794 756 507 243 606 580 730 633 45 232 662 340 786 273 921 273 273 273 273 273 273 273 273 273 273 273 273 782 782 782 782 782 782 782 404 404 404 404 404 404 404 404 404 404 404 404 404 638 638 638 638 638 