<?xml version="1.0"?>
<VTKFile type="ImageData" version="0.1" byte_order="LittleEndian">
<ImageData WholeExtent="0 100 0 100 0 100" Origin="0 0 0" Spacing="1 1 1">
<Piece Extent="0 100 0 100 0 100">
<PointData>
</PointData>
<CellData Scalars="Spin">
<DataArray type="Int32" Name="Spin" format="ascii" RangeMin="0" RangeMax="10000">
273 273 273 273 273 273 273 273 273 273 273 273 273 273 273 273 404 404 404 404 404 404 404 404 404 404 404 404 404 404 404 404 404 638 638 638 638 638 638 638 638 388 388 388 388 388 388 388 362 362 362 362 362 362 362 362 362 362 362 362 362 362 362 922 922 922 922 922 922 922 922 922 922 131 968 968 968 968 968 968 968 968 968 968 968 968 968 968 968 968 968 968 359 359 359 359 359 359 359 359 273 273 273 273 273 273 273 273 273 273 273 273 273 273 273 273 404 404 404 404 404 404 404 404 404 404 404 404 404 404 404 404 404 638 638 638 638 638 638 638 638 388 388 388 388 388 388 388 362 362 362 362 362 362 362 362 362 362 362 362 362 362 362 922 922 922 922 922 922 922 922 922 922 968 968 968 968 968 968 968 968 968 968 968 968 968 968 968 968 968 968 968 359 359 359 359 359 359 359 359 273 273 273 273 273 273 273 273 273 273 273 273 273 273 273 273 404 404 404 404 404 404 404 404 404 404 404 404 404 404 404 404 404 638 638 638 638 638 638 638 638 388 388 388 388 388 388 362 362 362 362 362 362 362 362 362 362 362 362 362 362 362 362 922 922 922 922 922 922 922 922 922 922 968 968 968 968 968 968 968 968 968 968 968 968 968 968 968 968 968 968 968 359 359 359 359 359 359 359 359 273 273 273 273 273 273 273 273 273 273 273 273 273 273 273 404 404 404 404 404 404 404 404 404 404 404 404 404 404 404 404 404 404 638 638 638 638 638 638 638 638 388 388 388 388 388 388 362 362 362 362 362 362 362 362 362 362 362 362 362 362 362 362 922 922 922 922 922 922 922 922 922 922 968 968 968 968 968 968 968 968 968 968 968 968 968 968 968 968 968 968 968 359 359 359 359 359 359 359 359 273 273 273 273 273 273 273 273 273 273 273 273 273 273 273 404 404 404 404 404 404 404 404 404 404 404 404 404 404 404 404 404 404 638 638 638 638 638 638 638 638 388 388 388 388 388 388 362 362 362 362 362 362 362 362 362 362 362 362 362 362 362 362 922 922 922 922 922 922 922 922 922 922 968 968 968 968 968 968 968 968 968 968 968 968 968 968 968 968 968 968 968 359 359 359 359 359 359 359 359 273 273 273 273 273 273 273 273 273 273 273 273 273 273 273 404 404 404 404 404 404 404 404 404 404 404 404 404 404 404 404 404 404 638 638 638 638 638 638 638 638 638 388 388 388 388 388 362 362 362 362 362 362 362 362 362 362 362 362 362 362 362 922 922 922 922 922 922 922 922 922 922 968 968 968 968 968 968 968 968 968 968 968 968 968 968 968 968 968 968 968 968 359 359 359 359 359 359 359 359 273 273 273 273 273 273 273 273 273 273 273 273 273 273 273 404 404 404 404 404 404 404 404 404 404 404 404 404 404 404 404 404 404 638 638 638 638 638 638 638 638 638 388 388 388 388 388 362 362 362 362 362 362 362 362 362 362 362 362 362 362 362 922 922 922 922 922 922 922 922 922 922 968 968 968 968 968 968 968 968 968 968 968 968 968 968 968 968 968 968 968 968 359 359 359 359 359 359 359 359 273 273 273 273 273 273 273 273 273 273 273 273 273 273 404 404 404 404 404 404 404 404 404 404 404 404 404 404 404 404 404 404 404 638 638 638 638 638 638 638 638 638 388 388 388 388 388 362 362 362 362 362 362 362 362 362 362 362 362 741 741 741 741 922 922 922 922 922 922 922 922 968 968 968 968 968 968 968 968 968 968 968 968 968 968 968 968 968 968 968 968 968 359 359 359 359 359 359 359 359 273 273 273 273 273 273 273 273 273 273 273 273 273 273 404 404 404 404 404 404 404 404 404 404 404 404 404 404 404 404 404 404 404 638 638 638 638 638 638 638 638 638 546 546 546 546 546 362 362 362 362 362 362 362 362 362 362 362 741 741 741 741 741 741 922 922 922 922 922 922 780 968 968 968 968 968 968 968 968 968 968 968 968 968 968 968 968 968 968 968 968 968 359 359 359 359 359 359 359 359 273 273 273 273 273 273 273 273 273 273 273 273 273 273 404 404 404 404 404 404 404 404 404 404 404 404 404 404 404 404 404 404 404 638 638 638 638 638 638 638 638 546 546 546 546 546 546 546 362 362 362 362 362 362 362 362 362 741 741 741 741 741 741 741 741 922 922 922 922 780 780 780 968 968 968 968 968 968 968 968 968 968 968 968 968 968 968 968 968 968 968 968 359 359 359 359 359 359 359 359 273 273 273 273 273 273 273 273 273 273 273 273 273 273 404 404 404 404 404 404 404 404 404 404 404 404 404 404 404 404 404 404 404 638 638 638 638 638 638 638 638 546 546 546 546 546 546 546 546 362 362 362 362 362 362 362 741 741 741 741 741 741 741 741 741 741 922 922 780 780 780 780 780 968 968 968 968 968 968 968 968 968 968 968 968 968 968 968 968 968 968 968 359 359 359 359 359 359 359 359 273 273 273 273 273 273 273 273 273 273 273 273 273 404 404 404 404 404 404 404 404 404 404 404 404 404 404 404 404 404 404 404 404 638 638 638 638 638 638 638 546 546 546 546 546 546 546 546 546 362 362 362 362 362 362 362 741 741 741 741 741 741 741 741 741 741 741 780 780 780 780 780 780 968 968 968 968 968 968 968 968 968 968 968 968 968 968 968 968 968 968 968 359 359 359 359 359 359 359 359 273 273 273 273 273 273 273 273 273 273 273 273 273 404 404 404 404 404 404 404 404 404 404 404 404 404 404 404 404 404 404 404 404 638 638 638 638 638 638 638 546 546 546 546 546 546 546 546 546 362 362 362 362 362 362 362 741 741 741 741 741 741 741 741 741 741 741 780 780 780 780 780 780 780 968 968 968 968 968 968 968 968 968 968 968 968 968 968 968 968 968 968 359 359 359 359 359 359 359 359 273 273 273 273 273 273 273 273 273 273 273 273 273 404 404 404 404 404 404 404 404 404 404 404 404 404 404 404 404 404 404 404 404 638 638 638 638 638 638 638 546 546 546 546 546 546 546 546 546 362 362 362 362 362 362 362 741 741 741 741 741 741 741 741 741 741 741 780 780 780 780 780 780 780 968 968 968 968 968 968 968 968 968 968 968 968 968 968 968 968 968 359 359 359 359 359 359 359 359 359 273 273 273 273 273 273 273 273 273 273 273 273 273 404 404 404 404 404 404 404 404 404 404 404 404 404 404 404 404 404 404 404 404 638 638 638 638 638 638 546 546 546 546 546 546 546 546 546 546 362 362 362 362 362 362 362 741 741 741 741 741 741 741 741 741 741 741 780 780 780 780 780 780 780 968 968 968 968 968 968 968 968 968 968 968 968 968 968 968 968 968 359 359 359 359 359 359 359 359 359 273 273 273 273 273 273 273 273 273 273 273 273 273 404 404 404 404 404 404 404 404 404 404 404 404 404 404 404 404 404 404 404 404 638 638 638 638 638 638 546 546 546 546 546 546 546 546 546 546 362 362 362 362 362 362 362 741 741 741 741 741 741 741 741 741 741 741 780 780 780 780 780 780 780 968 968 968 968 968 968 968 968 968 968 968 968 968 968 968 968 968 359 359 359 359 359 359 359 359 359 273 273 273 273 273 273 273 273 273 273 273 273 404 404 404 404 404 404 404 404 404 404 404 404 404 404 404 404 404 404 404 404 404 638 638 638 638 638 638 546 546 546 546 546 546 546 546 546 362 362 362 362 362 362 362 362 741 741 741 741 741 741 741 741 741 741 741 780 780 780 780 780 780 780 968 968 968 968 968 968 968 968 968 968 968 968 968 968 968 968 968 359 359 359 359 359 359 359 359 359 273 273 273 273 273 273 273 273 273 273 273 273 404 404 404 404 404 404 404 404 404 404 404 404 404 404 404 404 404 404 404 404 404 638 638 638 638 638 638 546 546 546 546 546 546 546 546 546 362 362 362 362 362 362 362 741 741 741 741 741 741 741 741 741 741 741 741 780 780 780 780 780 780 780 968 968 968 968 968 968 968 968 968 968 968 968 968 968 968 968 359 359 359 359 359 359 359 359 359 359 273 273 273 273 273 273 273 273 273 273 273 273 404 404 404 404 404 404 404 404 404 404 404 404 404 404 404 404 404 404 404 404 638 638 638 638 638 638 638 546 546 546 546 546 546 546 546 362 362 362 362 362 362 362 362 741 741 741 741 741 741 741 741 741 741 741 741 780 780 780 780 780 780 780 968 968 968 968 968 968 968 968 968 968 968 968 968 968 968 359 359 359 359 359 359 359 359 359 359 359 273 273 273 273 273 273 273 273 273 273 259 404 404 404 404 404 404 404 404 404 404 404 404 404 404 404 404 404 404 404 404 404 638 638 638 638 638 638 638 546 546 546 546 546 546 546 546 362 362 362 362 362 362 362 362 741 741 741 741 741 741 741 741 741 741 741 741 780 780 780 780 780 780 780 968 968 968 968 968 968 968 968 968 968 968 968 968 968 359 359 359 359 359 359 359 359 359 359 359 359 273 273 273 273 273 273 273 273 273 259 259 259 404 404 404 404 404 404 404 404 404 404 404 404 404 404 404 404 404 404 404 404 638 638 638 638 638 638 638 546 546 546 546 546 546 546 546 362 362 362 362 362 362 362 362 741 741 741 741 741 741 741 741 741 741 741 741 780 780 780 780 780 780 968 968 968 968 968 968 968 968 968 968 968 968 968 968 968 359 359 359 359 359 359 359 359 359 359 359 359 273 273 273 273 273 273 273 273 259 259 259 259 404 404 404 404 404 404 404 404 404 404 404 404 404 404 404 404 404 404 404 404 127 127 638 638 638 638 638 546 546 546 546 546 546 546 362 362 362 362 362 362 362 362 362 741 741 741 741 741 741 741 741 741 741 741 741 780 780 780 780 780 780 968 968 968 968 968 968 968 968 968 968 968 968 968 968 968 359 359 359 359 359 359 359 359 359 359 359 359 273 273 273 273 273 273 273 259 259 259 259 259 404 404 404 404 404 404 404 404 404 404 404 404 404 404 404 404 404 404 404 127 127 127 638 638 638 638 638 546 546 546 546 546 546 546 362 362 362 362 362 362 362 362 741 741 741 741 741 741 741 741 741 741 741 741 741 780 780 780 780 780 780 968 968 968 968 968 968 968 968 968 968 968 968 968 968 968 359 359 359 359 359 359 359 359 359 359 359 359 273 273 273 273 273 273 259 259 259 259 259 259 404 404 404 404 404 404 404 404 404 404 404 404 404 404 404 404 404 404 127 127 127 127 638 638 638 638 638 546 546 546 546 546 546 546 362 362 362 362 362 362 520 520 741 741 741 741 741 741 741 741 741 741 741 741 741 780 780 780 780 780 780 968 968 968 968 968 968 968 968 968 968 968 968 968 968 968 359 359 359 359 359 359 359 359 359 359 359 359 273 273 273 273 273 273 259 259 259 259 259 259 404 404 404 404 404 404 404 404 404 404 404 404 404 404 404 963 963 963 963 127 127 127 638 638 955 955 955 955 546 546 546 546 546 546 362 362 362 362 362 520 520 520 741 741 741 741 741 741 741 741 741 741 741 741 579 579 579 780 780 780 780 968 968 968 968 968 968 968 968 968 968 968 968 968 968 968 359 359 359 359 359 359 359 359 359 359 359 359 273 273 373 373 373 373 373 373 373 373 373 373 404 404 404 404 404 404 404 404 404 404 404 404 404 404 404 963 963 963 963 963 963 955 955 955 955 955 955 955 955 955 955 955 955 955 955 362 990 990 990 990 990 990 990 741 741 741 741 741 741 741 741 741 741 579 579 579 579 579 780 170 170 170 968 968 968 968 968 968 968 968 968 968 968 968 968 430 359 359 359 359 359 359 359 359 359 359 359 359 373 373 373 373 373 373 373 373 373 373 373 373 373 404 404 404 404 404 404 404 404 404 404 404 404 404 963 963 963 963 963 963 963 955 955 955 955 955 955 955 955 955 955 955 955 955 955 990 990 990 990 990 990 990 990 990 741 741 741 741 741 741 741 741 579 579 579 579 579 579 170 170 170 170 170 968 968 968 968 968 968 968 968 968 430 430 430 430 430 359 359 359 359 359 359 359 359 359 359 359 373 373 373 373 373 373 373 373 373 373 373 373 373 373 404 404 404 404 404 404 404 404 404 404 404 963 963 963 963 963 963 963 963 955 955 955 955 955 955 955 955 955 955 955 955 955 955 990 990 990 990 990 990 990 990 990 990 741 741 741 741 741 741 579 579 579 579 579 579 579 170 170 170 170 170 170 968 968 968 968 968 968 430 430 430 430 430 430 430 430 359 359 359 359 359 359 359 359 359 359 373 373 373 373 373 373 373 373 373 373 373 373 373 373 373 404 404 404 404 404 404 404 404 404 404 963 963 963 963 963 963 963 963 955 955 955 955 955 955 955 955 955 955 955 955 955 955 990 990 990 990 990 990 990 990 990 990 528 528 528 528 528 528 579 579 579 579 579 579 579 170 170 170 170 170 170 170 968 968 968 968 430 430 430 430 430 430 430 430 430 430 359 359 359 440 440 440 440 440 440 373 373 373 373 373 373 373 373 373 373 373 373 373 373 373 373 404 404 404 404 404 404 404 404 963 963 963 963 963 963 963 963 963 955 955 955 955 955 955 955 955 955 955 955 955 955 955 990 990 990 990 990 990 990 990 990 990 528 528 528 528 528 528 579 579 579 579 579 579 579 170 170 170 170 170 170 170 170 968 968 430 430 430 430 430 430 430 430 430 430 430 430 359 440 440 440 440 440 440 440 373 373 373 373 373 373 373 373 373 373 373 373 373 373 373 373 373 373 373 373 915 915 404 404 963 963 963 963 963 963 963 963 963 955 955 955 955 955 955 955 955 955 955 955 955 955 955 990 990 990 990 990 990 990 990 990 990 528 528 528 528 528 528 579 579 579 579 579 579 579 170 170 170 170 170 170 170 170 170 430 430 430 430 430 430 430 430 430 430 430 430 430 430 440 440 440 440 440 440 440 373 373 373 373 373 373 373 373 373 373 373 373 373 373 373 373 373 373 373 373 915 915 915 22 22 22 963 963 963 963 963 963 963 955 955 955 955 955 955 955 955 955 955 955 955 955 955 990 990 990 990 990 990 990 990 990 990 528 528 528 528 528 528 579 579 579 579 579 579 579 170 170 170 170 170 170 170 170 170 430 430 430 430 430 430 430 430 430 430 430 430 430 430 440 440 440 440 440 440 440 373 373 373 373 373 373 373 373 373 373 373 373 373 373 373 373 373 373 373 373 373 915 22 22 22 22 22 963 963 963 963 963 963 955 955 955 955 955 955 955 955 955 955 955 955 955 955 955 990 990 990 990 990 990 990 990 990 528 528 528 528 528 528 579 579 579 579 579 579 579 170 170 170 170 170 170 170 170 170 430 430 430 430 430 430 430 430 430 430 430 430 430 430 440 440 440 440 440 440 440 373 373 373 373 373 373 373 373 373 373 373 373 373 373 373 373 373 373 373 373 373 22 22 22 22 22 22 22 963 963 963 963 963 955 955 955 955 955 955 955 955 955 955 955 955 955 955 955 955 990 990 990 990 990 990 990 990 528 528 528 528 528 528 528 579 579 579 579 579 579 170 170 170 170 170 170 170 170 170 430 430 430 430 430 430 430 430 430 430 430 430 430 430 440 440 440 440 440 440 440 373 373 373 373 373 373 373 373 373 373 373 373 373 373 373 373 373 373 373 373 373 22 22 22 22 22 22 22 22 963 963 963 955 955 955 955 955 955 955 955 955 955 955 955 955 955 955 955 955 955 990 990 990 990 990 990 990 528 528 528 528 528 528 528 579 579 579 579 579 579 579 170 170 170 170 170 170 170 170 430 430 430 430 430 430 430 430 430 430 430 430 430 430 440 440 440 440 440 440 440 373 373 373 373 373 373 373 373 373 373 373 373 373 373 373 373 373 373 373 373 373 22 22 22 22 22 22 22 22 22 216 216 216 955 955 955 955 955 955 955 955 955 955 955 955 955 955 955 955 955 849 990 990 990 990 990 990 528 528 528 528 528 528 528 579 579 579 579 579 579 579 170 170 170 170 170 170 170 170 430 430 430 430 430 430 430 430 430 430 430 430 430 430 440 440 440 440 440 440 440 373 373 373 373 373 373 373 373 373 373 373 373 373 373 373 373 373 373 373 373 373 22 22 22 22 22 22 22 22 22 216 216 216 216 955 955 955 955 955 955 955 955 955 955 955 955 955 955 955 849 849 849 849 849 990 990 528 528 528 528 528 528 528 528 579 579 579 579 579 579 579 579 170 170 170 170 170 170 430 430 430 430 430 430 430 430 430 430 430 430 430 430 430 440 440 440 440 440 440 440 373 373 373 373 373 373 373 373 373 373 373 373 373 373 373 373 373 373 373 373 373 22 22 22 22 22 22 22 22 22 216 216 216 216 216 955 955 955 955 955 955 955 955 955 955 955 955 955 849 849 849 849 849 849 849 849 528 528 528 528 528 528 528 528 528 579 579 579 579 579 579 579 855 855 855 855 855 855 430 430 430 430 430 430 430 430 430 430 430 430 430 430 430 440 440 440 440 440 440 440 373 373 373 373 373 373 373 373 373 373 373 373 373 373 373 373 373 373 373 373 373 22 22 22 22 22 22 22 22 22 216 216 216 216 216 216 955 955 955 955 955 955 955 955 955 955 955 955 849 849 849 849 849 849 849 849 528 528 528 528 528 528 528 528 528 579 579 579 579 579 579 579 855 855 855 855 855 855 855 430 430 430 430 430 430 430 430 430 430 430 430 430 430 440 440 440 440 440 440 440 373 373 373 373 373 373 373 373 373 373 373 373 373 373 373 373 373 373 373 373 373 22 22 22 22 22 22 22 22 22 216 216 216 216 216 216 955 955 955 955 955 955 955 955 955 955 955 955 849 849 849 849 849 849 849 849 528 528 528 528 528 528 528 528 528 579 579 579 579 579 579 579 855 855 855 855 855 855 855 430 430 430 430 430 430 430 430 430 430 430 430 430 430 440 440 440 440 440 440 440 373 373 373 373 373 373 373 373 373 373 373 373 373 373 373 373 373 373 373 373 373 22 22 22 22 22 22 22 22 22 216 216 216 216 216 216 216 955 955 955 955 955 955 955 955 955 955 955 849 849 849 849 849 849 849 849 528 528 528 528 528 528 528 528 528 579 579 579 579 579 579 579 855 855 855 855 855 855 855 430 430 430 430 430 430 430 430 430 430 430 430 430 430 440 440 440 440 440 440 440 373 373 373 373 373 373 373 373 373 373 373 373 373 373 373 373 373 373 373 373 373 373 22 22 22 22 22 22 22 22 216 216 216 216 216 216 216 955 955 955 955 955 955 955 955 955 955 955 849 849 849 849 849 849 849 849 528 528 528 528 528 528 528 528 528 579 579 579 579 579 579 579 855 855 855 855 855 855 855 855 430 430 430 430 430 430 430 430 430 430 430 430 430 440 440 440 440 440 440 440 373 373 373 373 373 373 373 373 373 373 373 373 373 373 373 373 373 373 373 373 373 373 373 22 22 22 22 22 22 22 216 216 216 216 216 216 216 955 955 955 955 955 955 955 955 955 955 955 955 849 849 849 849 849 849 849 849 528 528 528 528 528 528 528 528 579 579 579 579 579 579 855 855 855 855 855 855 855 855 855 430 430 430 430 430 430 430 430 430 430 430 430 430 440 440 440 440 440 440 440 373 373 373 373 373 373 373 373 373 373 373 373 373 373 373 373 373 373 373 373 373 373 373 22 22 22 22 22 22 22 216 216 216 216 216 216 216 216 955 955 955 955 955 955 955 955 955 955 955 849 849 849 849 849 849 849 849 528 528 528 528 528 528 528 528 579 579 579 579 579 579 855 855 855 855 855 855 855 855 855 855 430 430 430 430 430 430 430 430 430 430 430 430 440 440 440 440 440 440 440 373 373 373 373 373 373 373 373 373 373 373 373 373 373 373 373 373 373 373 373 373 373 373 373 22 22 22 22 22 22 216 216 216 216 216 216 216 216 955 955 955 955 955 955 955 955 955 955 955 849 849 849 849 849 849 849 849 528 528 528 528 528 528 528 528 528 579 579 579 579 855 855 855 855 855 855 855 855 855 855 855 430 430 430 430 430 430 430 430 430 430 430 430 430 440 440 440 440 440 440 373 373 373 373 373 373 373 373 373 373 373 373 373 373 373 373 373 373 373 373 373 373 373 373 22 22 22 22 22 22 22 216 216 216 216 216 216 216 955 955 955 955 955 955 955 955 955 955 955 955 849 849 849 849 849 849 849 528 528 528 528 528 528 528 528 528 579 579 579 855 855 855 855 855 855 855 855 855 855 855 855 855 430 430 430 430 430 430 430 430 430 430 430 430 430 440 440 440 440 440 373 373 373 373 373 373 373 373 373 373 373 373 373 373 373 373 373 373 373 373 373 373 373 373 22 22 22 22 22 22 22 216 216 216 216 216 216 216 955 955 955 955 955 955 955 955 955 955 955 955 849 849 849 849 849 849 849 528 528 528 528 528 528 528 528 528 528 579 855 855 855 855 855 855 855 855 855 855 855 855 855 855 430 430 430 430 430 430 430 430 430 430 430 430 430 430 440 440 440 440 373 373 373 373 373 373 373 373 373 373 373 373 373 373 373 373 373 373 373 373 373 373 373 373 22 22 22 22 22 22 22 216 216 216 216 216 216 216 216 955 955 955 955 955 955 955 955 955 955 955 849 849 849 849 849 849 849 528 528 528 528 528 528 528 528 528 528 528 855 855 855 855 855 855 855 855 855 855 855 855 855 855 430 430 430 430 430 430 430 430 430 430 430 430 430 430 430 430 430 430 373 373 373 373 373 373 373 373 373 373 373 373 373 373 373 373 373 373 373 373 373 373 373 373 22 22 22 22 22 22 22 216 216 216 216 216 216 216 216 812 955 955 955 955 955 955 955 955 955 955 849 849 849 849 849 849 849 528 528 528 528 528 528 528 528 528 528 528 855 855 855 855 855 855 855 855 855 855 855 855 855 855 430 430 430 430 430 430 430 430 430 430 430 430 430 430 430 430 430 430 373 373 373 373 373 373 373 373 373 373 373 373 373 373 373 373 373 373 373 373 373 373 373 22 22 22 22 22 22 22 22 844 216 216 216 216 216 216 216 763 955 955 955 955 955 955 955 955 955 894 849 849 849 849 849 849 849 528 528 528 528 528 528 528 528 528 528 528 528 855 855 855 855 855 855 855 855 855 855 855 855 264 264 430 430 430 430 430 430 430 430 430 430 430 430 430 430 430 430 430 373 373 373 373 373 373 373 373 373 373 373 373 373 373 373 373 373 373 373 373 373 373 219 219 22 22 22 22 22 22 22 22 216 216 216 216 216 216 216 358 955 955 955 955 955 955 955 955 894 894 894 849 849 849 849 849 849 528 528 528 528 528 528 528 528 528 528 528 528 680 855 855 855 855 855 855 855 855 855 855 855 984 984 984 430 430 430 430 430 430 430 430 430 430 430 430 430 430 430 430 461 461 461 461 461 461 461 461 461 373 373 373 373 373 373 373 373 373 373 373 373 219 219 219 219 22 22 22 22 22 22 22 216 216 216 216 216 358 358 358 358 955 955 955 955 955 955 894 894 894 894 894 849 849 849 849 219 219 528 528 528 528 528 528 528 528 528 680 680 680 680 855 855 855 855 855 855 855 855 855 984 984 984 984 984 984 984 984 984 430 430 430 430 430 430 430 430 430 430 430 461 461 461 461 461 461 461 461 461 461 373 373 373 373 373 373 373 373 373 219 219 219 219 219 219 852 852 852 852 852 852 358 358 358 358 358 358 358 358 358 358 358 358 894 894 894 894 894 894 894 894 894 894 219 219 219 219 219 219 528 528 528 528 528 528 528 680 680 680 680 680 680 680 855 855 855 855 855 855 984 984 984 984 984 984 984 984 984 984 984 430 430 430 430 430 430 430 447 447 447 461 461 461 461 461 461 461 461 461 461 373 373 373 373 373 373 373 219 219 219 219 219 219 219 852 852 852 852 852 852 852 358 358 358 358 358 358 358 358 358 358 358 358 894 894 894 894 894 894 894 894 894 894 219 219 219 219 219 219 219 528 528 528 528 680 680 680 680 680 680 680 680 680 680 855 855 855 855 984 984 984 984 984 984 984 984 984 984 984 984 984 430 430 430 447 447 447 447 447 447 461 461 461 461 461 461 461 461 461 461 461 373 373 373 373 373 219 219 219 219 219 219 219 852 852 852 852 852 852 852 358 358 358 358 358 358 358 358 358 358 358 358 358 358 894 894 894 894 894 894 894 894 219 219 219 219 219 219 219 219 219 528 680 680 680 680 680 680 680 680 680 680 680 680 680 855 855 984 984 984 984 984 984 984 984 984 984 984 984 984 984 984 447 447 447 447 447 447 447 447 461 461 461 461 461 461 461 461 461 461 461 461 373 373 373 219 219 219 219 219 219 219 219 852 852 852 852 852 852 358 358 358 358 358 358 358 358 358 358 358 358 358 358 358 894 894 894 894 894 894 894 219 219 219 219 219 219 219 219 219 219 680 680 680 680 680 680 680 680 680 680 680 680 680 680 680 984 984 984 984 984 984 984 984 984 984 984 984 984 984 984 984 447 447 447 447 447 447 447 447 461 461 461 461 461 461 461 461 461 461 461 461 5 5 219 219 219 219 219 219 219 219 219 852 852 852 852 852 852 358 358 358 358 358 358 358 358 358 358 358 358 358 358 358 358 894 894 894 894 894 894 219 219 219 219 219 219 219 219 219 680 680 680 680 680 680 680 680 680 680 680 680 680 680 680 680 984 984 984 984 984 984 984 984 984 984 984 984 984 984 984 984 447 447 447 447 447 447 447 447 461 461 461 461 461 461 461 461 461 461 461 461 5 5 219 219 219 219 219 219 219 219 219 852 852 852 852 852 358 358 358 358 358 358 358 358 358 358 358 358 358 358 358 358 358 358 894 894 894 894 894 219 219 219 219 219 219 219 219 783 680 680 680 680 680 680 680 680 680 680 680 680 680 680 680 680 984 984 984 984 984 984 984 984 984 984 984 984 984 984 984 984 447 447 447 447 447 447 447 447 461 461 461 461 461 461 461 461 461 461 461 461 5 5 219 219 219 219 219 219 219 219 852 852 852 852 852 852 358 358 358 358 358 358 358 358 358 358 358 358 358 358 358 358 358 358 358 894 894 894 894 219 219 219 219 219 219 783 783 783 783 680 680 680 680 680 680 680 680 680 680 680 680 680 680 680 984 984 984 984 984 984 984 984 984 984 984 984 984 984 984 984 447 447 447 447 447 447 447 447 461 461 461 461 461 461 461 461 461 461 461 5 5 5 219 219 219 219 219 219 219 219 852 852 852 852 852 358 358 358 358 358 358 358 358 358 358 358 358 358 358 358 358 358 358 358 358 358 894 894 219 219 219 219 219 219 783 783 783 783 783 783 680 680 680 680 680 680 680 680 680 680 680 680 680 680 984 984 984 984 984 984 984 984 984 984 984 984 984 984 984 984 447 447 447 447 447 447 447 447 461 461 461 461 461 461 461 461 461 461 461 5 5 219 219 219 219 219 219 219 219 219 852 852 852 852 358 358 358 358 358 358 358 358 358 358 358 358 358 358 358 358 358 358 358 358 358 358 894 219 219 219 219 219 219 783 783 783 783 783 783 783 680 680 680 680 680 680 680 680 680 680 680 680 680 984 984 984 984 984 984 984 984 984 984 984 984 984 984 984 984 984 447 447 447 447 447 447 447 447 461 461 461 461 461 461 461 461 461 461 461 461 219 219 219 219 219 219 219 219 219 219 219 852 852 358 358 358 358 358 358 358 358 358 358 358 358 358 358 358 358 358 358 358 358 358 358 358 358 358 219 219 219 219 783 783 783 783 783 783 783 783 680 680 680 680 680 680 680 680 680 680 680 680 680 984 984 984 984 984 984 984 984 984 984 984 984 984 984 984 984 984 447 447 447 447 447 447 447 447 461 461 461 461 461 461 461 461 461 461 461 461 219 219 219 219 219 219 219 219 219 219 219 219 358 358 358 358 358 358 358 358 358 358 358 358 358 358 358 358 358 358 358 358 358 358 358 358 358 479 479 219 219 783 783 783 783 783 783 783 783 783 680 680 680 680 680 680 680 680 680 680 680 680 984 984 984 984 984 984 984 984 984 984 984 984 984 984 984 984 984 984 447 447 447 447 447 447 447 447 461 461 461 461 461 461 461 461 461 461 461 461 219 219 219 219 219 219 219 219 219 219 219 358 358 358 358 358 358 358 358 358 358 358 358 358 358 358 358 358 358 358 358 358 358 358 358 358 358 479 479 479 783 783 783 783 783 783 783 783 783 783 680 680 680 680 680 680 680 680 680 680 680 680 984 984 984 984 984 984 984 984 984 984 984 984 984 984 984 984 984 984 447 447 447 447 447 447 447 447 461 461 461 461 461 461 461 461 461 461 461 461 219 219 219 219 219 219 219 219 219 219 219 358 358 358 358 358 358 358 358 358 358 358 358 358 358 358 358 358 358 358 358 358 358 358 358 358 479 479 479 479 783 783 783 783 783 783 783 783 783 783 680 680 680 680 680 680 680 680 680 680 680 680 984 984 984 984 984 984 984 984 984 984 984 984 984 984 984 984 984 447 447 447 447 447 447 447 447 447 461 461 461 461 461 461 461 461 461 461 461 219 219 219 219 219 219 219 219 219 219 219 219 358 358 358 358 358 358 358 358 358 358 358 358 358 358 358 358 358 358 358 358 358 358 358 358 479 479 479 479 479 783 783 783 783 783 783 783 783 783 680 680 680 680 680 680 680 680 680 680 680 680 680 984 984 984 984 984 984 984 984 984 984 984 984 984 984 984 984 984 447 447 447 447 447 447 447 447 447 461 461 461 461 461 461 461 461 461 461 461 219 219 219 219 219 219 219 219 219 219 219 219 358 358 358 358 358 358 358 358 358 358 358 358 358 358 358 358 358 358 358 358 358 358 358 479 479 479 479 479 479 783 783 783 783 783 783 783 783 783 680 680 680 680 680 680 680 680 680 680 680 680 680 984 984 984 984 984 984 984 984 984 984 984 984 984 984 984 984 447 447 447 447 447 447 447 447 447 447 461 461 461 461 461 461 461 461 461 461 461 219 219 219 219 219 219 219 219 219 219 219 219 219 358 358 358 358 358 358 358 358 358 358 358 358 358 358 358 358 358 358 358 358 358 358 479 479 479 479 479 479 783 783 783 783 783 783 783 783 783 680 680 680 680 680 680 680 680 680 680 680 680 680 984 984 984 984 984 984 984 984 984 984 984 984 984 984 984 984 447 447 447 447 447 447 447 447 447 447 461 461 461 461 461 461 461 461 461 461 461 219 219 219 219 219 219 219 219 219 219 219 219 358 358 358 358 358 358 358 358 358 358 358 358 358 358 358 358 358 358 358 358 358 358 358 479 479 479 479 479 479 783 783 783 783 783 783 783 783 783 680 680 680 680 680 680 680 680 680 680 680 680 680 984 984 984 984 984 984 984 984 984 984 984 984 984 984 984 984 447 447 447 447 447 447 447 447 447 447 461 461 461 461 461 461 461 461 461 461 533 219 219 219 219 219 219 219 219 219 219 219 358 358 358 358 358 358 358 358 358 358 358 358 358 358 358 358 358 358 358 358 358 358 358 358 479 479 479 479 479 479 783 783 783 783 783 783 783 783 783 680 680 680 680 680 680 680 680 680 680 680 680 984 984 984 984 984 984 984 984 984 984 984 984 984 984 984 984 984 447 447 447 447 447 447 447 447 447 447 461 461 461 461 461 461 461 461 461 533 533 533 219 219 219 219 219 219 219 219 219 219 358 358 358 358 358 358 358 358 358 358 358 358 358 358 358 358 358 358 358 358 358 358 358 358 479 479 479 479 479 783 783 783 783 783 783 783 783 783 783 680 680 680 680 680 680 680 680 680 680 680 680 984 984 984 984 984 984 984 984 984 984 984 984 984 984 984 984 447 447 447 447 447 447 447 447 447 447 447 461 461 461 461 461 461 461 461 533 533 533 533 219 219 219 219 219 219 219 219 219 219 358 358 358 358 358 358 358 358 358 358 358 358 358 358 358 358 358 358 358 358 358 358 358 358 479 479 479 479 479 783 783 783 783 783 783 783 783 783 783 680 680 680 680 680 680 680 680 680 680 808 808 984 984 984 984 984 984 984 984 984 984 984 984 984 984 984 447 447 447 447 447 447 447 447 447 447 447 447 461 461 461 461 461 461 461 533 533 533 533 533 219 219 219 219 219 219 219 219 219 219 358 358 358 358 358 358 358 358 358 358 358 358 358 358 358 358 358 358 358 358 358 358 358 358 479 479 479 479 479 783 783 783 783 783 783 783 783 783 783 680 680 680 680 680 680 680 680 680 808 808 808 984 984 984 984 984 984 984 984 984 984 984 984 984 984 984 447 447 447 447 447 447 447 447 447 447 447 447 461 461 461 461 461 461 533 533 533 533 533 533 533 219 219 219 219 219 219 219 219 219 358 358 358 358 358 358 358 358 358 358 358 358 358 358 358 358 358 358 358 358 358 358 358 358 806 806 806 806 806 783 783 783 783 783 783 783 783 783 783 680 680 680 680 680 680 680 680 373 808 808 865 865 984 984 984 984 984 984 984 984 984 984 984 984 984 984 447 447 447 447 447 447 447 447 447 447 447 447 461 461 461 461 461 533 533 533 533 533 533 533 533 219 219 219 219 219 219 219 219 219 575 358 358 358 358 358 358 358 358 358 358 358 358 358 358 358 358 358 358 358 358 358 358 358 806 806 806 806 806 783 986 783 783 783 783 783 783 783 680 68