<?xml version="1.0"?>
<VTKFile type="ImageData" version="0.1" byte_order="LittleEndian">
<ImageData WholeExtent="0 100 0 100 0 100" Origin="0 0 0" Spacing="1 1 1">
<Piece Extent="0 100 0 100 0 100">
<PointData>
</PointData>
<CellData Scalars="Spin">
<DataArray type="Int32" Name="Spin" format="ascii" RangeMin="0" RangeMax="1000">
273 273 273 273 273 273 273 273 273 273 273 273 273 273 273 273 404 404 404 404 404 404 404 404 404 404 404 404 404 404 404 404 404 638 638 638 638 638 638 638 638 388 388 388 388 388 388 388 362 362 273 273 273 273 273 273 273 273 273 273 273 273 273 273 273 273 404 404 404 404 404 404 404 404 404 404 404 404 404 404 404 404 404 638 638 638 638 638 638 638 638 388 388 388 388 388 388 388 362 362 273 273 273 273 273 273 273 273 273 273 273 273 273 273 273 273 404 404 404 404 404 404 404 404 404 404 404 404 404 404 404 404 404 638 638 638 638 638 638 638 638 388 388 388 388 388 388 362 362 362 273 273 273 273 273 273 273 273 273 273 273 273 273 273 273 404 404 404 404 404 404 404 404 404 404 404 404 404 404 404 404 404 404 638 638 638 638 638 638 638 638 388 388 388 388 388 388 362 362 362 273 273 273 273 273 273 273 273 273 273 273 273 273 273 273 404 404 404 404 404 404 404 404 404 404 404 404 404 404 404 404 404 404 638 638 638 638 638 638 638 638 388 388 388 388 388 388 362 362 362 273 273 273 273 273 273 273 273 273 273 273 273 273 273 273 404 404 404 404 404 404 404 404 404 404 404 404 404 404 404 404 404 404 638 638 638 638 638 638 638 638 638 388 388 388 388 388 362 362 362 273 273 273 273 273 273 273 273 273 273 273 273 273 273 273 404 404 404 404 404 404 404 404 404 404 404 404 404 404 404 404 404 404 638 638 638 638 638 638 638 638 638 388 388 388 388 388 362 362 362 273 273 273 273 273 273 273 273 273 273 273 273 273 273 404 404 404 404 404 404 404 404 404 404 404 404 404 404 404 404 404 404 404 638 638 638 638 638 638 638 638 638 388 388 388 388 388 362 362 362 273 273 273 273 273 273 273 273 273 273 273 273 273 273 404 404 404 404 404 404 404 404 404 404 404 404 404 404 404 404 404 404 404 638 638 638 638 638 638 638 638 638 546 546 546 546 546 362 362 362 273 273 273 273 273 273 273 273 273 273 273 273 273 273 404 404 404 404 404 404 404 404 404 404 404 404 404 404 404 404 404 404 404 638 638 638 638 638 638 638 638 546 546 546 546 546 546 546 362 362 273 273 273 273 273 273 273 273 273 273 273 273 273 273 404 404 404 404 404 404 404 404 404 404 404 404 404 404 404 404 404 404 404 638 638 638 638 638 638 638 638 546 546 546 546 546 546 546 546 362 273 273 273 273 273 273 273 273 273 273 273 273 273 404 404 404 404 404 404 404 404 404 404 404 404 404 404 404 404 404 404 404 404 638 638 638 638 638 638 638 546 546 546 546 546 546 546 546 546 362 273 273 273 273 273 273 273 273 273 273 273 273 273 404 404 404 404 404 404 404 404 404 404 404 404 404 404 404 404 404 404 404 404 638 638 638 638 638 638 638 546 546 546 546 546 546 546 546 546 362 273 273 273 273 273 273 273 273 273 273 273 273 273 404 404 404 404 404 404 404 404 404 404 404 404 404 404 404 404 404 404 404 404 638 638 638 638 638 638 638 546 546 546 546 546 546 546 546 546 362 273 273 273 273 273 273 273 273 273 273 273 273 273 404 404 404 404 404 404 404 404 404 404 404 404 404 404 404 404 404 404 404 404 638 638 638 638 638 638 546 546 546 546 546 546 546 546 546 546 362 273 273 273 273 273 273 273 273 273 273 273 273 273 404 404 404 404 404 404 404 404 404 404 404 404 404 404 404 404 404 404 404 404 638 638 638 638 638 638 546 546 546 546 546 546 546 546 546 546 362 273 273 273 273 273 273 273 273 273 273 273 273 404 404 404 404 404 404 404 404 404 404 404 404 404 404 404 404 404 404 404 404 404 638 638 638 638 638 638 546 546 546 546 546 546 546 546 546 362 362 273 273 273 273 273 273 273 273 273 273 273 273 404 404 404 404 404 404 404 404 404 404 404 404 404 404 404 404 404 404 404 404 404 638 638 638 638 638 638 546 546 546 546 546 546 546 546 546 362 362 273 273 273 273 273 273 273 273 273 273 273 273 404 404 404 404 404 404 404 404 404 404 404 404 404 404 404 404 404 404 404 404 638 638 638 638 638 638 638 546 546 546 546 546 546 546 546 362 362 362 273 273 273 273 273 273 273 273 273 273 259 404 404 404 404 404 404 404 404 404 404 404 404 404 404 404 404 404 404 404 404 404 638 638 638 638 638 638 638 546 546 546 546 546 546 546 546 362 362 362 273 273 273 273 273 273 273 273 273 259 259 259 404 404 404 404 404 404 404 404 404 404 404 404 404 404 404 404 404 404 404 404 638 638 638 638 638 638 638 546 546 546 546 546 546 546 546 362 362 362 273 273 273 273 273 273 273 273 259 259 259 259 404 404 404 404 404 404 404 404 404 404 404 404 404 404 404 404 404 404 404 404 127 127 638 638 638 638 638 546 546 546 546 546 546 546 362 362 362 362 273 273 273 273 273 273 273 259 259 259 259 259 404 404 404 404 404 404 404 404 404 404 404 404 404 404 404 404 404 404 404 127 127 127 638 638 638 638 638 546 546 546 546 546 546 546 362 362 362 362 273 273 273 273 273 273 259 259 259 259 259 259 404 404 404 404 404 404 404 404 404 404 404 404 404 404 404 404 404 404 127 127 127 127 638 638 638 638 638 546 546 546 546 546 546 546 362 362 362 362 273 273 273 273 273 273 259 259 259 259 259 259 404 404 404 404 404 404 404 404 404 404 404 404 404 404 404 963 963 963 963 127 127 127 638 638 955 955 955 955 546 546 546 546 546 546 362 362 362 362 273 273 373 373 373 373 373 373 373 373 373 373 404 404 404 404 404 404 404 404 404 404 404 404 404 404 404 963 963 963 963 963 963 955 955 955 955 955 955 955 955 955 955 955 955 955 955 362 990 990 373 373 373 373 373 373 373 373 373 373 373 373 373 404 404 404 404 404 404 404 404 404 404 404 404 404 963 963 963 963 963 963 963 955 955 955 955 955 955 955 955 955 955 955 955 955 955 990 990 990 373 373 373 373 373 373 373 373 373 373 373 373 373 373 404 404 404 404 404 404 404 404 404 404 404 963 963 963 963 963 963 963 963 955 955 955 955 955 955 955 955 955 955 955 955 955 955 990 990 990 373 373 373 373 373 373 373 373 373 373 373 373 373 373 373 404 404 404 404 404 404 404 404 404 404 963 963 963 963 963 963 963 963 955 955 955 955 955 955 955 955 955 955 955 955 955 955 990 990 990 373 373 373 373 373 373 373 373 373 373 373 373 373 373 373 373 404 404 404 404 404 404 404 404 963 963 963 963 963 963 963 963 963 955 955 955 955 955 955 955 955 955 955 955 955 955 955 990 990 990 373 373 373 373 373 373 373 373 373 373 373 373 373 373 373 373 373 373 373 373 915 915 404 404 963 963 963 963 963 963 963 963 963 955 955 955 955 955 955 955 955 955 955 955 955 955 955 990 990 990 373 373 373 373 373 373 373 373 373 373 373 373 373 373 373 373 373 373 373 373 915 915 915 22 22 22 963 963 963 963 963 963 963 955 955 955 955 955 955 955 955 955 955 955 955 955 955 990 990 990 373 373 373 373 373 373 373 373 373 373 373 373 373 373 373 373 373 373 373 373 373 915 22 22 22 22 22 963 963 963 963 963 963 955 955 955 955 955 955 955 955 955 955 955 955 955 955 955 990 990 373 373 373 373 373 373 373 373 373 373 373 373 373 373 373 373 373 373 373 373 373 22 22 22 22 22 22 22 963 963 963 963 963 955 955 955 955 955 955 955 955 955 955 955 955 955 955 955 955 990 373 373 373 373 373 373 373 373 373 373 373 373 373 373 373 373 373 373 373 373 373 22 22 22 22 22 22 22 22 963 963 963 955 955 955 955 955 955 955 955 955 955 955 955 955 955 955 955 955 955 373 373 373 373 373 373 373 373 373 373 373 373 373 373 373 373 373 373 373 373 373 22 22 22 22 22 22 22 22 22 216 216 216 955 955 955 955 955 955 955 955 955 955 955 955 955 955 955 955 955 373 373 373 373 373 373 373 373 373 373 373 373 373 373 373 373 373 373 373 373 373 22 22 22 22 22 22 22 22 22 216 216 216 216 955 955 955 955 955 955 955 955 955 955 955 955 955 955 955 849 373 373 373 373 373 373 373 373 373 373 373 373 373 373 373 373 373 373 373 373 373 22 22 22 22 22 22 22 22 22 216 216 216 216 216 955 955 955 955 955 955 955 955 955 955 955 955 955 849 849 373 373 373 373 373 373 373 373 373 373 373 373 373 373 373 373 373 373 373 373 373 22 22 22 22 22 22 22 22 22 216 216 216 216 216 216 955 955 955 955 955 955 955 955 955 955 955 955 849 849 373 373 373 373 373 373 373 373 373 373 373 373 373 373 373 373 373 373 373 373 373 22 22 22 22 22 22 22 22 22 216 216 216 216 216 216 955 955 955 955 955 955 955 955 955 955 955 955 849 849 373 373 373 373 373 373 373 373 373 373 373 373 373 373 373 373 373 373 373 373 373 22 22 22 22 22 22 22 22 22 216 216 216 216 216 216 216 955 955 955 955 955 955 955 955 955 955 955 849 849 373 373 373 373 373 373 373 373 373 373 373 373 373 373 373 373 373 373 373 373 373 373 22 22 22 22 22 22 22 22 216 216 216 216 216 216 216 955 955 955 955 955 955 955 955 955 955 955 849 849 373 373 373 373 373 373 373 373 373 373 373 373 373 373 373 373 373 373 373 373 373 373 373 22 22 22 22 22 22 22 216 216 216 216 216 216 216 955 955 955 955 955 955 955 955 955 955 955 955 849 373 373 373 373 373 373 373 373 373 373 373 373 373 373 373 373 373 373 373 373 373 373 373 22 22 22 22 22 22 22 216 216 216 216 216 216 216 216 955 955 955 955 955 955 955 955 955 955 955 849 373 373 373 373 373 373 373 373 373 373 373 373 373 373 373 373 373 373 373 373 373 373 373 373 22 22 22 22 22 22 216 216 216 216 216 216 216 216 955 955 955 955 955 955 955 955 955 955 955 849 373 373 373 373 373 373 373 373 373 373 373 373 373 373 373 373 373 373 373 373 373 373 373 373 22 22 22 22 22 22 22 216 216 216 216 216 216 216 955 955 955 955 955 955 955 955 955 955 955 955 373 373 373 373 373 373 373 373 373 373 373 373 373 373 373 373 373 373 373 373 373 373 373 373 22 22 22 22 22 22 22 216 216 216 216 216 216 216 955 955 955 955 955 955 955 955 955 955 955 955 373 373 373 373 373 373 373 373 373 373 373 373 373 373 373 373 373 373 373 373 373 373 373 373 22 22 22 22 22 22 22 216 216 216 216 216 216 216 216 955 955 955 955 955 955 955 955 955 955 955 373 373 373 373 373 373 373 373 373 373 373 373 373 373 373 373 373 373 373 373 373 373 373 373 22 22 22 22 22 22 22 216 216 216 216 216 216 216 216 812 955 955 955 955 955 955 955 955 955 955 373 373 373 373 373 373 373 373 373 373 373 373 373 373 373 373 373 373 373 373 373 373 373 22 22 22 22 22 22 22 22 844 216 216 216 216 216 216 216 763 955 955 955 955 955 955 955 955 955 894 273 273 273 273 273 273 273 273 273 273 273 273 273 273 273 273 404 404 404 404 404 404 404 404 404 404 404 404 404 404 404 404 404 638 638 638 638 638 638 638 638 388 388 388 388 388 388 388 362 362 273 273 273 273 273 273 273 273 273 273 273 273 273 273 273 273 404 404 404 404 404 404 404 404 404 404 404 404 404 404 404 404 404 638 638 638 638 638 638 638 638 388 388 388 388 388 388 388 362 362 273 273 273 273 273 273 273 273 273 273 273 273 273 273 273 273 404 404 404 404 404 404 404 404 404 404 404 404 404 404 404 404 404 638 638 638 638 638 638 638 638 388 388 388 388 388 388 362 362 362 273 273 273 273 273 273 273 273 273 273 273 273 273 273 273 404 404 404 404 404 404 404 404 404 404 404 404 404 404 404 404 404 404 638 638 638 638 638 638 638 638 388 388 388 388 388 388 362 362 362 273 273 273 273 273 273 273 273 273 273 273 273 273 273 273 404 404 404 404 404 404 404 404 404 404 404 404 404 404 404 404 404 404 638 638 638 638 638 638 638 638 388 388 388 388 388 388 362 362 362 273 273 273 273 273 273 273 273 273 273 273 273 273 273 273 404 404 404 404 404 404 404 404 404 404 404 404 404 404 404 404 404 404 638 638 638 638 638 638 638 638 638 388 388 388 388 388 362 362 362 273 273 273 273 273 273 273 273 273 273 273 273 273 273 273 404 404 404 404 404 404 404 404 404 404 404 404 404 404 404 404 404 404 638 638 638 638 638 638 638 638 638 388 388 388 388 388 362 362 362 273 273 273 273 273 273 273 273 273 273 273 273 273 273 404 404 404 404 404 404 404 404 404 404 404 404 404 404 404 404 404 404 404 638 638 638 638 638 638 638 638 638 388 388 388 388 388 362 362 362 273 273 273 273 273 273 273 273 273 273 273 273 273 273 404 404 404 404 404 404 404 404 404 404 404 404 404 404 404 404 404 404 404 638 638 638 638 638 638 638 638 638 546 546 546 546 546 362 362 362 273 273 273 273 273 273 273 273 273 273 273 273 273 273 404 404 404 404 404 404 404 404 404 404 404 404 404 404 404 404 404 404 404 638 638 638 638 638 638 638 638 546 546 546 546 546 546 546 362 362 273 273 273 273 273 273 273 273 273 273 273 273 273 273 404 404 404 404 404 404 404 404 404 404 404 404 404 404 404 404 404 404 404 638 638 638 638 638 638 638 638 546 546 546 546 546 546 546 546 362 273 273 273 273 273 273 273 273 273 273 273 273 273 404 404 404 404 404 404 404 404 404 404 404 404 404 404 404 404 404 404 404 404 638 638 638 638 638 638 638 546 546 546 546 546 546 546 546 546 362 273 273 273 273 273 273 273 273 273 273 273 273 273 404 404 404 404 404 404 404 404 404 404 404 404 404 404 404 404 404 404 404 404 638 638 638 638 638 638 638 546 546 546 546 546 546 546 546 546 362 273 273 273 273 273 273 273 273 273 273 273 273 273 404 404 404 404 404 404 404 404 404 404 404 404 404 404 404 404 404 404 404 404 638 638 638 638 638 638 638 546 546 546 546 546 546 546 546 546 362 273 273 273 273 273 273 273 273 273 273 273 273 273 404 404 404 404 404 404 404 404 404 404 404 404 404 404 404 404 404 404 404 404 638 638 638 638 638 638 546 546 546 546 546 546 546 546 546 546 362 273 273 273 273 273 273 273 273 273 273 273 273 273 404 404 404 404 404 404 404 404 404 404 404 404 404 404 404 404 404 404 404 404 638 638 638 638 638 638 546 546 546 546 546 546 546 546 546 546 362 273 273 273 273 273 273 273 273 273 273 273 273 273 404 404 404 404 404 404 404 404 404 404 404 404 404 404 404 404 404 404 404 404 638 638 638 638 638 638 546 546 546 546 546 546 546 546 546 362 362 273 273 273 273 273 273 273 273 273 273 273 273 404 404 404 404 404 404 404 404 404 404 404 404 404 404 404 404 404 404 404 404 404 638 638 638 638 638 638 546 546 546 546 546 546 546 546 546 362 362 273 273 273 273 273 273 273 273 273 273 273 404 404 404 404 404 404 404 404 404 404 404 404 404 404 404 404 404 404 404 404 404 638 638 638 638 638 638 638 546 546 546 546 546 546 546 546 362 362 362 273 273 273 273 273 273 273 273 273 273 273 404 404 404 404 404 404 404 404 404 404 404 404 404 404 404 404 404 404 404 404 404 638 638 638 638 638 638 638 546 546 546 546 546 546 546 546 362 362 362 273 273 273 273 273 273 273 273 273 259 259 259 404 404 404 404 404 404 404 404 404 404 404 404 404 404 404 404 404 404 404 404 638 638 638 638 638 638 638 546 546 546 546 546 546 546 546 362 362 362 273 273 273 273 273 273 273 273 259 259 259 259 404 404 404 404 404 404 404 404 404 404 404 404 404 404 404 404 404 404 404 127 127 638 638 638 638 638 638 546 546 546 546 546 546 546 362 362 362 362 273 273 273 273 273 273 273 259 259 259 259 259 404 404 404 404 404 404 404 404 404 404 404 404 404 404 404 404 404 404 404 127 127 638 638 638 638 638 638 546 546 546 546 546 546 546 362 362 362 362 273 273 273 273 273 273 273 259 259 259 259 259 404 404 404 404 404 404 404 404 404 404 404 404 404 404 404 404 404 404 127 127 127 127 638 638 638 638 638 546 546 546 546 546 546 546 362 362 362 362 273 273 273 273 273 273 259 259 259 259 259 259 404 404 404 404 404 404 404 404 404 404 404 404 404 404 404 963 963 963 963 127 127 127 955 955 955 955 955 955 546 546 546 546 546 955 362 362 362 362 273 273 373 373 373 373 373 373 373 373 373 373 404 404 404 404 404 404 404 404 404 404 404 404 404 404 404 963 963 963 963 963 963 955 955 955 955 955 955 955 955 955 955 955 955 955 955 362 362 990 373 373 373 373 373 373 373 373 373 373 373 373 373 404 404 404 404 404 404 404 404 404 404 404 404 404 963 963 963 963 963 963 963 955 955 955 955 955 955 955 955 955 955 955 955 955 955 990 990 990 373 373 373 373 373 373 373 373 373 373 373 373 373 373 404 404 404 404 404 404 404 404 404 404 404 404 963 963 963 963 963 963 963 955 955 955 955 955 955 955 955 955 955 955 955 955 955 990 990 990 373 373 373 373 373 373 373 373 373 373 373 373 373 373 373 404 404 404 404 404 404 404 404 404 404 963 963 963 963 963 963 963 963 955 955 955 955 955 955 955 955 955 955 955 955 955 955 990 990 990 373 373 373 373 373 373 373 373 373 373 373 373 373 373 373 373 404 404 404 404 404 404 404 404 963 963 963 963 963 963 963 963 963 955 955 955 955 955 955 955 955 955 955 955 955 955 955 990 990 990 373 373 373 373 373 373 373 373 373 373 373 373 373 373 373 373 373 373 373 404 404 404 915 404 963 963 963 963 963 963 963 963 963 955 955 955 955 955 955 955 955 955 955 955 955 955 955 990 990 990 373 373 373 373 373 373 373 373 373 373 373 373 373 373 373 373 373 373 373 373 915 915 915 22 22 22 963 963 963 963 963 963 963 955 955 955 955 955 955 955 955 955 955 955 955 955 955 990 990 990 373 373 373 373 373 373 373 373 373 373 373 373 373 373 373 373 373 373 373 373 373 915 22 22 22 22 22 963 963 963 963 963 963 955 955 955 955 955 955 955 955 955 955 955 955 955 955 955 990 990 373 373 373 373 373 373 373 373 373 373 373 373 373 373 373 373 373 373 373 373 373 22 22 22 22 22 22 22 963 963 963 963 963 955 955 955 955 955 955 955 955 955 955 955 955 955 955 955 955 990 373 373 373 373 373 373 373 373 373 373 373 373 373 373 373 373 373 373 373 373 373 22 22 22 22 22 22 22 22 963 963 963 216 955 955 955 955 955 955 955 955 955 955 955 955 955 955 955 955 955 373 373 373 373 373 373 373 373 373 373 373 373 373 373 373 373 373 373 373 373 373 22 22 22 22 22 22 22 22 22 216 216 216 955 955 955 955 955 955 955 955 955 955 955 955 955 955 955 955 955 373 373 373 373 373 373 373 373 373 373 373 373 373 373 373 373 373 373 373 373 373 22 22 22 22 22 22 22 22 22 216 216 216 216 955 955 955 955 955 955 955 955 955 955 955 955 955 955 955 849 373 373 373 373 373 373 373 373 373 373 373 373 373 373 373 373 373 373 373 373 373 22 22 22 22 22 22 22 22 22 216 216 216 216 216 955 955 955 955 955 955 955 955 955 955 955 955 955 849 849 373 373 373 373 373 373 373 373 373 373 373 373 373 373 373 373 373 373 373 373 373 22 22 22 22 22 22 22 22 22 216 216 216 216 216 216 955 955 955 955 955 955 955 955 955 955 955 955 849 849 373 373 373 373 373 373 373 373 373 373 373 373 373 373 373 373 373 373 373 373 373 22 22 22 22 22 22 22 22 22 216 216 216 216 216 216 955 955 955 955 955 955 955 955 955 955 955 955 849 849 373 373 373 373 373 373 373 373 373 373 373 373 373 373 373 373 373 373 373 373 373 22 22 22 22 22 22 22 22 22 216 216 216 216 216 216 216 955 955 955 955 955 955 955 955 955 955 955 849 849 373 373 373 373 373 373 373 373 373 373 373 373 373 373 373 373 373 373 373 373 373 373 22 22 22 22 22 22 22 22 216 216 216 216 216 216 216 955 955 955 955 955 955 955 955 955 955 955 849 849 373 373 373 373 373 373 373 373 373 373 373 373 373 373 373 373 373 373 373 373 373 373 373 22 22 22 22 22 22 22 216 216 216 216 216 216 216 955 955 955 955 955 955 955 955 955 955 955 955 849 373 373 373 373 373 373 373 373 373 373 373 373 373 373 373 373 373 373 373 373 373 373 373 22 22 22 22 22 22 22 216 216 216 216 216 216 216 216 955 955 955 955 955 955 955 955 955 955 955 849 373 373 373 373 373 373 373 373 373 373 373 373 373 373 373 373 373 373 373 373 373 373 373 373 22 22 22 22 22 22 216 216 216 216 216 216 216 216 955 955 955 955 955 955 955 955 955 955 955 849 373 373 373 373 373 373 373 373 373 373 373 373 373 373 373 373 373 373 373 373 373 373 373 373 22 22 22 22 22 22 22 216 216 216 216 216 216 216 955 955 955 955 955 955 955 955 955 955 955 955 373 373 373 373 373 373 373 373 373 373 373 373 373 373 373 373 373 373 373 373 373 373 373 373 22 22 22 22 22 22 22 216 216 216 216 216 216 216 955 955 955 955 955 955 955 955 955 955 955 955 373 373 373 373 373 373 373 373 373 373 373 373 373 373 373 373 373 373 373 373 373 373 373 373 22 22 22 22 22 22 22 216 216 216 216 216 216 216 216 955 955 955 955 955 955 955 955 955 955 955 373 373 373 373 373 373 373 373 373 373 373 373 373 373 373 373 373 373 373 373 373 373 373 373 22 22 22 22 22 22 22 216 216 216 216 216 216 216 216 955 955 955 955 955 955 955 955 955 955 955 373 373 373 373 373 373 373 373 373 373 373 373 373 373 373 373 373 373 373 373 373 373 373 22 22 22 22 22 22 22 22 844 216 216 216 216 216 216 216 763 955 955 955 955 955 955 955 955 955 894 273 273 273 273 273 273 273 273 273 273 273 273 273 273 273 273 404 404 404 404 404 404 404 404 404 404 404 404 404 404 404 404 404 638 638 638 638 638 638 638 638 388 388 388 388 388 388 388 362 362 273 273 273 273 273 273 273 273 273 273 273 273 273 273 273 273 404 404 404 404 404 404 404 404 404 404 404 404 404 404 404 404 404 638 638 638 638 638 638 638 638 388 388 388 388 388 388 362 362 362 273 273 273 273 273 273 273 273 273 273 273 273 273 273 273 404 404 404 404 404 404 404 404 404 404 404 404 404 404 404 404 404 404 638 638 638 638 638 638 638 638 388 388 388 388 388 388 362 362 362 273 273 273 273 273 273 273 273 273 273 273 273 273 273 273 404 404 404 404 404 404 404 404 404 404 404 404 404 404 404 404 404 404 638 638 638 638 638 638 638 638 388 388 388 388 388 388 362 362 362 273 273 273 273 273 273 273 273 273 273 273 273 273 273 273 404 404 404 404 404 404 404 404 404 404 404 404 404 404 404 404 404 404 638 638 638 638 638 638 638 638 638 388 388 388 388 388 362 362 362 273 273 273 273 273 273 273 273 273 273 273 273 273 273 273 404 404 404 404 404 404 404 404 404 404 404 404 404 404 404 404 404 404 638 638 638 638 638 638 638 638 638 388 388 388 388 388 362 362 362 273 273 273 273 273 273 273 273 273 273 273 273 273 273 273 404 404 404 404 404 404 404 404 404 404 404 404 404 404 404 404 404 404 638 638 638 638 638 638 638 638 638 388 388 388 388 388 362 362 362 273 273 273 273 273 273 273 273 273 273 273 273 273 273 404 404 404 404 404 404 404 404 404 404 404 404 404 404 404 404 404 404 404 638 638 638 638 638 638 638 638 638 388 388 388 388 546 362 362 362 273 273 273 273 273 273 273 273 273 273 273 273 273 273 404 404 404 404 404 404 404 404 404 404 404 404 404 404 404 404 404 404 404 638 638 638 638 638 638 638 638 638 546 546 546 546 546 546 362 362 273 273 273 273 273 273 273 273 273 273 273 273 273 273 404 404 404 404 404 404 404 404 404 404 404 404 404 404 404 404 404 404 404 638 638 638 638 638 638 638 638 546 546 546 546 546 546 546 362 362 273 273 273 273 273 273 273 273 273 273 273 273 273 273 404 404 404 404 404 404 404 404 404 404 404 404 404 404 404 404 404 404 404 638 638 638 638 638 638 638 638 546 546 546 546 546 546 546 546 362 273 273 273 273 273 273 273 273 273 273 273 273 273 404 404 404 404 404 404 404 404 404 404 404 404 404 404 404 404 404 404 404 404 638 638 638 638 638 638 638 546 546 546 546 546 546 546 546 546 362 273 273 273 273 273 273 273 273 273 273 273 273 273 404 404 404 404 404 404 404 404 404 404 404 404 404 404 404 404 404 404 404 404 638 638 638 638 638 638 638 546 546 546 546 546 546 546 546 546 362 273 273 273 273 273 273 273 273 273 273 273 273 273 404 404 404 404 404 404 404 404 404 404 404 404 404 404 404 404 404 404 404 404 638 638 638 638 638 638 638 546 546 546 546 546 546 546 546 546 362 273 273 273 273 273 273 273 273 273 273 273 273 273 404 404 404 404 404 404 404 404 404 404 404 404 404 404 404 404 404 404 404 404 638 638 638 638 638 638 546 546 546 546 546 546 546 546 546 546 362 273 273 273 273 273 273 273 273 273 273 273 273 273 404 404 404 404 404 404 404 404 404 404 404 404 404 404 404 404 404 404 404 404 638 638 638 638 638 638 546 546 546 546 546 546 546 546 546 546 362 273 273 273 273 273 273 273 273 273 273 273 273 273 404 404 404 404 404 404 404 404 404 404 404 404 404 404 404 404 404 404 404 404 638 638 638 638 638 638 546 546 546 546 546 546 546 546 546 362 362 273 273 273 273 273 273 273 273 273 273 273 273 404 404 404 404 404 404 404 404 404 404 404 404 404 404 404 404 404 404 404 404 404 638 638 638 638 638 638 546 546 546 546 546 546 546 546 362 362 362 273 273 273 273 273 273 273 273 273 273 273 273 404 404 404 404 404 404 404 404 404 404 404 404 404 404 404 404 404 404 404 404 638 638 638 638 638 638 638 546 546 546 546 546 546 546 546 362 362 362 273 273 273 273 273 273 273 273 273 273 273 404 404 404 404 404 404 404 404 404 404 404 404 404 404 404 404 404 404 404 404 404 638 638 638 638 638 638 638 546 546 546 546 546 546 546 546 362 362 362 273 273 273 273 273 273 273 273 273 273 259 404 404 404 404 404 404 404 404 404 404 404 404 404 404 404 404 404 404 404 404 404 638 638 638 638 638 638 638 546 546 546 546 546 546 546 362 362 362 362 273 273 273 273 273 273 273 273 273 259 259 404 404 404 404 404 404 404 404 404 404 404 404 404 404 404 404 404 404 404 404 404 638 638 638 638 638 638 638 546 546 546 546 546 546 546 362 362 362 362 273 273 273 273 273 273 273 273 259 259 259 259 404 404 404 404 404 404 404 404 404 404 404 404 404 404 404 404 404 404 404 127 127 638 638 638 638 638 638 546 546 546 546 546 546 546 362 362 362 362 273 273 273 273 273 273 273 259 259 259 259 259 404 404 404 404 404 404 404 404 404 404 404 404 404 404 404 404 404 404 404 127 127 638 638 638 638 638 955 546 546 546 546 546 546 546 362 362 362 362 273 273 273 273 273 273 373 259 259 259 259 373 404 404 404 404 404 404 404 404 404 404 404 404 404 404 404 963 963 963 963 127 127 638 638 955 955 955 955 955 546 546 546 546 546 546 362 362 362 362 273 273 373 373 373 373 373 373 373 373 373 373 404 404 404 404 404 404 404 404 404 404 404 404 404 404 404 963 963 963 963 963 963 955 955 955 955 955 955 955 955 955 955 955 955 955 955 362 362 990 373 373 373 373 373 373 373 373 373 373 373 373 373 404 404 404 404 404 404 404 404 404 404 404 404 404 963 963 963 963 963 963 963 955 955 955 955 955 955 955 955 955 955 955 955 955 955 990 990 990 373 373 373 373 373 373 373 373 373 373 373 373 373 373 404 404 404 404 404 404 404 404 404 404 404 404 963 963 963 963 963 963 963 955 955 955 955 955 955 955 955 955 955 955 955 955 955 990 990 990 373 373 373 373 373 373 373 373 373 373 373 373 373 373 373 404 404 404 404 404 404 404 404 404 404 963 963 963 963 963 963 963 963 955 955 955 955 955 955 955 955 955 955 955 955 955 955 990 990 990 373 373 373 373 373 373 373 373 373 373 373 373 373 373 373 373 404 404 404 404 404 404 404 404 404 963 963 963 963 963 963 963 963 955 955 955 955 955 955 955 955 955 955 955 955 955 955 990 990 990 373 373 373 373 373 373 373 373 373 373 373 373 373 373 373 373 373 373 404 404 404 404 404 404 963 963 963 963 963 963 963 963 963 955 955 955 955 955 955 955 955 955 955 955 955 955 955 990 990 990 373 373 373 373 373 373 373 373 373 373 373 373 373 373 373 373 373 373 373 373 404 404 22 22 22 22 963 963 963 963 963 963 963 955 955 955 955 955 955 955 955 955 955 955 955 955 955 990 990 990 373 373 373 373 373 373 373 373 373 373 373 373 373 373 373 373 373 373 373 373 373 22 22 22 22 22 22 963 963 963 963 963 963 955 955 955 955 955 955 955 955 955 955 955 955 955 955 955 990 990 373 373 373 373 373 373 373 373 373 373 373 373 373 373 373 373 373 373 373 373 373 22 22 22 22 22 22 22 963 963 963 963 963 955 955 955 955 955 955 955 955 955 955 955 955 955 955 955 955 990 373 373 373 373 373 373 373 373 373 373 373 373 373 373 373 373 373 373 373 373 373 22 22 22 22 22 22 22 22 963 963 216 216 955 955 955 955 955 955 955 955 955 955 955 955 955 955 955 955 955 373 373 373 373 373 373 373 373 373 373 373 373 373 373 373 373 373 373 373 373 373 22 22 22 22 22 22 22 22 22 216 216 216 216 955 955 955 955 955 955 955 955 955 955 955 955 955 955 955 955 373 373 373 373 373 373 373 373 373 373 373 373 373 373 373 373 373 373 373 373 373 22 22 22 22 22 22 22 22 22 216 216 216 216 955 955 955 955 955 955 955 955 955 955 955 955 955 955 955 849 373 373 373 373 373 373 373 373 373 373 373 373 373 373 373 373 373 373 373 373 373 22 22 22 22 22 22 22 22 22 216 216 216 216 216 955 955 955 955 955 955 955 955 955 955 955 955 955 849 849 373 373 373 373 373 373 373 373 373 373 373 373 373 373 373 373 373 373 373 373 373 22 22 22 22 22 22 22 22 22 216 216 216 216 216 216 955 955 955 955 955 955 955 955 955 955 955 955 849 849 373 373 373 373 373 373 373 373 373 373 373 373 373 373 373 373 373 373 373 373 373 22 22 22 22 22 22 22 22 22 216 216 216 216 216 216 955 955 955 955 955 955 955 955 955 955 955 955 849 849 373 373 373 373 373 373 373 373 373 373 373 373 373 373 373 373 373 373 373 373 373 22 22 22 22 22 22 22 22 22 216 216 216 216 216 216 216 955 955 955 955 955 955 955 955 955 955 955 849 849 373 373 373 373 373 373 373 373 373 373 373 373 373 373 373 373 373 373 373 373 373 373 22 22 22 22 22 22 22 22 216 216 216 216 216 216 216 955 955 955 955 955 955 955 955 955 955 955 849 849 373 373 373 373 373 373 373 373 373 373 373 373 373 373 373 373 373 373 373 373 373 373 373 22 22 22 22 22 22 22 216 216 216 216 216 216 216 216 955 955 955 955 955 955 955 955 955 955 955 849 373 373 373 373 373 373 373 373 373 373 373 373 373 373 373 373 373 373 373 373 373 373 373 22 22 22 22 22 22 22 216 216 216 216 216 216 216 216 955 955 955 955 955 955 955 955 955 955 955 849 373 373 373 373 373 373 373 373 373 373 373 373 373 373 373 373 373 373 373 373 373 373 373 373 22 22 22 22 22 22 216 216 216 216 216 216 216 216 955 955 955 955 955 955 955 955 955 955 955 849 373 373 373 373 373 373 373 373 373 373 373 373 373 373 373 373 373 373 373 373 373 373 373 373 22 22 22 22 22 22 22 216 216 216 216 216 216 216 955 955 955 955 955 955 955 955 955 955 955 955 373 373 373 373 373 373 373 373 373 373 373 373 373 373 373 373 373 373 373 373 373 373 373 373 22 22 22 22 22 22 22 216 216 216 216 216 216 216 955 955 955 955 955 955 955 955 955 955 955 955 373 373 373 373 373 373 373 373 373 373 373 373 373 373 373 373 373 373 373 373 373 373 373 373 22 22 22 22 22 22 22 216 216 216 216 216 216 216 216 955 955 955 955 955 955 955 955 955 955 955 373 373 373 373 373 373 373 373 373 373 373 373 373 373 373 373 373 373 373 373 373 373 373 373 22 22 22 22 22 22 22 216 216 216 216 216 216 216 216 955 955 955 955 955 955 955 955 955 955 955 373 373 373 373 373 373 373 373 373 373 373 373 373 373 373 373 373 373 373 373 373 373 373 22 22 22 22 22 22 22 22 844 216 216 216 216 216 216 216 763 955 812 955 955 955 955 955 955 955 894 273 273 273 273 273 273 273 273 273 273 273 273 273 273 273 273 404 404 404 404 404 404 404 40